
     Program PWSCF v.7.3 starts on  9Mar2025 at 11:18: 8 

     This program is part of the open-source Quantum ESPRESSO suite
     for quantum simulation of materials; please cite
         "P. Giannozzi et al., J. Phys.:Condens. Matter 21 395502 (2009);
         "P. Giannozzi et al., J. Phys.:Condens. Matter 29 465901 (2017);
         "P. Giannozzi et al., J. Chem. Phys. 152 154105 (2020);
          URL http://www.quantum-espresso.org", 
     in publications or presentations arising from this work. More details at
     http://www.quantum-espresso.org/quote

     Parallel version (MPI & OpenMP), running on     120 processor cores
     Number of MPI processes:               120
     Threads/MPI process:                     1

     MPI processes distributed on     1 nodes
     490830 MiB available memory on the printing compute node when the environment starts

     Reading input from pw-water-93.in
Warning: card &CELL ignored
Warning: card / ignored
Warning: card &FCP ignored
Warning: card / ignored
Warning: card &RISM ignored
Warning: card / ignored

     Current dimensions of program PWSCF are:
     Max number of different atomic species (ntypx) = 10
     Max number of k-points (npk) =  40000
     Max angular momentum in pseudopotentials (lmaxx) =  4

     IMPORTANT: XC functional enforced from input :
     Exchange-correlation= SCAN
                           (   0   0   0   0   0 263 267)
     Any further DFT definition will be discarded
     Please, verify this is what you really want


     gamma-point specific algorithms are used

     R & G space division:  proc/nbgrp/npool/nimage =     120
     Subspace diagonalization in iterative solution of the eigenvalue problem:
     one sub-group per band group will be used
     ELPA distributed-memory algorithm (size of sub-group: 10* 10 procs)


     Parallelization info
     --------------------
     sticks:   dense  smooth     PW     G-vecs:    dense   smooth      PW
     Min         223     223     55                53054    53054    6618
     Max         226     226     58                53096    53096    6642
     Sum       27001   27001   6747              6368777  6368777  796049

     Using Slab Decomposition



     bravais-lattice index     =            0
     lattice parameter (alat)  =      27.1743  a.u.
     unit-cell volume          =   40863.0649 (a.u.)^3
     number of atoms/cell      =          493
     number of atomic types    =            5
     number of electrons       =      2104.00
     number of Kohn-Sham states=         1052
     kinetic-energy cutoff     =     110.0000  Ry
     charge density cutoff     =     440.0000  Ry
     scf convergence threshold =      1.0E-06
     mixing beta               =       0.5000
     number of iterations used =            8  plain     mixing
     Exchange-correlation= SCAN
                           (   0   0   0   0   0 263 267)

     celldm(1)=  27.174262  celldm(2)=   0.000000  celldm(3)=   0.000000
     celldm(4)=   0.000000  celldm(5)=   0.000000  celldm(6)=   0.000000

     crystal axes: (cart. coord. in units of alat)
               a(1) = (   1.000000   0.000000   0.000000 )  
               a(2) = (   0.263718   1.045271   0.000000 )  
               a(3) = (  -1.114529  -1.155389   1.948179 )  

     reciprocal axes: (cart. coord. in units 2 pi/alat)
               b(1) = (  1.000000 -0.252296  0.422460 )  
               b(2) = ( -0.000000  0.956690  0.567375 )  
               b(3) = (  0.000000  0.000000  0.513300 )  


     PseudoPot. # 1 for K  read from file:
     /scratch/zhouwq/DFT-feldspar-surface/script-dft/K_ONCV_PBE_sr.upf
     MD5 check sum: 1b7a13238029e3acac828725779bbc07
     Pseudo is Norm-conserving, Zval =  9.0
     Generated using ONCVPSP code by D. R. Hamann
     Using radial grid of 2222 points,  6 beta functions with: 
                l(1) =   0
                l(2) =   0
                l(3) =   1
                l(4) =   1
                l(5) =   2
                l(6) =   2

     PseudoPot. # 2 for Al read from file:
     /scratch/zhouwq/DFT-feldspar-surface/script-dft/Al_ONCV_PBE_sr.upf
     MD5 check sum: f1d308f5052db2acb2ab62005e7ebd82
     Pseudo is Norm-conserving, Zval = 11.0
     Generated using ONCVPSP code by D. R. Hamann
     Using radial grid of 1876 points,  4 beta functions with: 
                l(1) =   0
                l(2) =   0
                l(3) =   1
                l(4) =   1

     PseudoPot. # 3 for Si read from file:
     /scratch/zhouwq/DFT-feldspar-surface/script-dft/Si_ONCV_PBE_sr.upf
     MD5 check sum: 8553c464762ac42b85b1eed164b4d029
     Pseudo is Norm-conserving, Zval =  4.0
     Generated using ONCVPSP code by D. R. Hamann
     Using radial grid of 1510 points,  4 beta functions with: 
                l(1) =   0
                l(2) =   0
                l(3) =   1
                l(4) =   1

     PseudoPot. # 4 for O  read from file:
     /scratch/zhouwq/DFT-feldspar-surface/script-dft/O_ONCV_PBE_sr.upf
     MD5 check sum: 503208cc3dd01d9a06cc7045986f7d49
     Pseudo is Norm-conserving, Zval =  6.0
     Generated using ONCVPSP code by D. R. Hamann
     Using radial grid of  936 points,  4 beta functions with: 
                l(1) =   0
                l(2) =   0
                l(3) =   1
                l(4) =   1

     PseudoPot. # 5 for H  read from file:
     /scratch/zhouwq/DFT-feldspar-surface/script-dft/H_ONCV_PBE_sr.upf
     MD5 check sum: 8975ef619c0c80d0ef0fa21f3286b90d
     Pseudo is Norm-conserving, Zval =  1.0
     Generated using ONCVPSP code by D. R. Hamann
     Using radial grid of 1166 points,  2 beta functions with: 
                l(1) =   0
                l(2) =   0

     atomic species   valence    mass     pseudopotential
     K                 9.00    39.09830     K ( 1.00)
     Al               11.00    26.98154     Al( 1.00)
     Si                4.00    28.08500     Si( 1.00)
     O                 6.00    15.99900     O ( 1.00)
     H                 1.00     1.00800     H ( 1.00)

     No symmetry found



   Cartesian axes

     site n.     atom                  positions (alat units)
         1        K      tau(   1) = (  -0.9336649  -0.9127244   2.7485245  )
         2        Al     tau(   2) = (  -1.1901958  -1.6545255   2.7922194  )
         3        Si     tau(   3) = (  -1.0613269  -0.8448505   2.9671659  )
         4        Si     tau(   4) = (  -1.4729816  -1.6561685   2.7949302  )
         5        Si     tau(   5) = (  -1.1958533  -0.8132376   2.8059680  )
         6        Si     tau(   6) = (  -1.3278569  -1.6832554   2.9636926  )
         7        Si     tau(   7) = (  -0.9745143  -0.7065544   2.6173509  )
         8        Si     tau(   8) = (  -1.3304831  -1.5209603   2.6968477  )
         9        O      tau(   9) = (  -1.5770079  -1.6330528   2.8155252  )
        10        O      tau(  10) = (  -1.2090702  -0.8841572   2.7198752  )
        11        O      tau(  11) = (  -1.2789526  -0.8098389   2.8759243  )
        12        O      tau(  12) = (  -1.2373680  -1.6868053   2.9019743  )
        13        O      tau(  13) = (  -0.9033936  -0.6607125   2.5404256  )
        14        O      tau(  14) = (  -1.4252938  -1.5734486   2.7311969  )
        15        O      tau(  15) = (  -1.3121666  -1.5147564   2.5827679  )
        16        O      tau(  16) = (  -0.9355487  -0.7046904   2.7223021  )
        17        O      tau(  17) = (  -1.3440466  -1.7839578   3.0135715  )
        18        O      tau(  18) = (  -1.1930548  -0.7118317   2.7441606  )
        19        O      tau(  19) = (  -1.0788374  -0.6654638   2.6015817  )
        20        O      tau(  20) = (  -1.2408617  -1.5549722   2.7499829  )
        21        O      tau(  21) = (  -1.0911594  -0.8356893   2.8563813  )
        22        O      tau(  22) = (  -1.4144818  -1.6553760   2.8962466  )
        23        Al     tau(  23) = (  -1.0626232  -1.1277615   2.7944515  )
        24        Si     tau(  24) = (  -1.1933728  -0.9901739   2.6872849  )
        25        Si     tau(  25) = (  -1.1255710  -1.2440360   2.6256668  )
        26        O      tau(  26) = (  -1.4395918  -1.0985028   2.7890856  )
        27        O      tau(  27) = (  -0.9842861  -0.8165296   2.5848330  )
        28        O      tau(  28) = (  -1.1401136  -1.3601595   2.6125082  )
        29        O      tau(  29) = (  -1.2719337  -1.0482831   2.7416503  )
        30        O      tau(  30) = (  -1.0392727  -1.2151618   2.5552095  )
        31        O      tau(  31) = (  -1.1012474  -1.2279441   2.7366128  )
        32        O      tau(  32) = (  -1.1938053  -0.9978952   2.5733109  )
        33        O      tau(  33) = (  -1.0948830  -1.0289805   2.7287811  )
        34        O      tau(  34) = (  -1.2204488  -1.1931622   2.5910838  )
        35        O      tau(  35) = (  -1.8753205  -1.9637588   3.6853260  )
        36        Al     tau(  36) = (  -1.5901546  -1.1099228   3.4479376  )
        37        Si     tau(  37) = (  -1.4542489  -1.2427443   3.5398749  )
        38        Si     tau(  38) = (  -1.8170810  -2.0467891   3.6348960  )
        39        O      tau(  39) = (  -1.2079001  -1.1280910   3.4398888  )
        40        O      tau(  40) = (  -1.7142456  -1.4191139   3.6640908  )
        41        O      tau(  41) = (  -1.3773307  -1.1717212   3.4908754  )
        42        O      tau(  42) = (  -1.8410394  -2.1396698   3.6983621  )
        43        O      tau(  43) = (  -1.8370143  -2.0625116   3.5243284  )
        44        O      tau(  44) = (  -1.4375723  -1.2396219   3.6511994  )
        45        O      tau(  45) = (  -1.5551231  -1.2108010   3.5055981  )
        46        O      tau(  46) = (  -1.7075855  -2.0107558   3.6469079  )
        47        K      tau(  47) = (  -1.7154400  -1.3333984   3.4867898  )
        48        K      tau(  48) = (  -1.3323867  -1.6787064   3.2196277  )
        49        K      tau(  49) = (  -1.8349455  -1.8483259   3.5130123  )
        50        Al     tau(  50) = (  -1.7356499  -1.6213761   3.4443195  )
        51        Si     tau(  51) = (  -1.5956113  -1.3898248   3.2627047  )
        52        Si     tau(  52) = (  -1.4519051  -1.6222997   3.4318122  )
        53        Si     tau(  53) = (  -1.4591339  -1.4203294   3.4198114  )
        54        Si     tau(  54) = (  -1.5959857  -1.5978448   3.2701913  )
        55        Si     tau(  55) = (  -1.6803651  -1.5194453   3.6293854  )
        56        Si     tau(  56) = (  -1.5933392  -1.7535295   3.5365352  )
        57        O      tau(  57) = (  -1.3484324  -1.6579725   3.4260679  )
        58        O      tau(  58) = (  -1.4287373  -1.3451656   3.4973712  )
        59        O      tau(  59) = (  -1.5718866  -1.8608389   3.5114315  )
        60        O      tau(  60) = (  -1.6067477  -1.6735689   3.1828460  )
        61        O      tau(  61) = (  -1.3802026  -1.4391253   3.3430365  )
        62        O      tau(  62) = (  -1.6853513  -1.5999846   3.3358393  )
        63        O      tau(  63) = (  -1.7272033  -1.6060763   3.6914043  )
        64        O      tau(  64) = (  -1.5039931  -1.6949786   3.4964417  )
        65        O      tau(  65) = (  -1.5877345  -1.7442890   3.6500361  )
        66        O      tau(  66) = (  -1.7107670  -1.5288253   3.5233265  )
        67        O      tau(  67) = (  -1.5859960  -1.4968018   3.2175403  )
        68        O      tau(  68) = (  -1.4796011  -1.5184572   3.4739040  )
        69        O      tau(  69) = (  -1.5654607  -1.5293051   3.6451100  )
        70        O      tau(  70) = (  -1.6955204  -1.7225750   3.5010950  )
        71        O      tau(  71) = (  -1.5559064  -1.3829587   3.3704223  )
        72        O      tau(  72) = (  -1.5000499  -1.6268148   3.3266940  )
        73        K      tau(  73) = (  -1.2140427  -1.1752746   3.2342279  )
        74        Al     tau(  74) = (  -1.3421859  -0.8409218   2.9747861  )
        75        Al     tau(  75) = (  -1.4434695  -1.9141611   3.2599995  )
        76        Si     tau(  76) = (  -1.3141993  -1.0964644   3.4353523  )
        77        Si     tau(  77) = (  -1.7257713  -1.9152198   3.2805333  )
        78        Si     tau(  78) = (  -1.4509299  -1.0822491   3.2761304  )
        79        Si     tau(  79) = (  -1.5891505  -1.9394617   3.4332316  )
        80        Si     tau(  80) = (  -1.2142713  -0.9718242   3.0813292  )
        81        Si     tau(  81) = (  -1.5806188  -1.7851175   3.1671660  )
        82        O      tau(  82) = (  -0.9540697  -0.8752418   2.9742795  )
        83        O      tau(  83) = (  -1.8269495  -1.8707479   3.2836059  )
        84        O      tau(  84) = (  -1.4699283  -1.1505925   3.1910729  )
        85        O      tau(  85) = (  -1.5374225  -1.1007812   3.3453464  )
        86        O      tau(  86) = (  -1.5078445  -1.9356369   3.3607705  )
        87        O      tau(  87) = (  -1.1267263  -0.9204813   3.0230341  )
        88        O      tau(  88) = (  -1.6628568  -1.8423401   3.2196277  )
        89        O      tau(  89) = (  -1.5949835  -1.7942466   3.0552180  )
        90        O      tau(  90) = (  -1.1976110  -0.9739478   3.1915238  )
        91        O      tau(  91) = (  -1.5941263  -2.0390979   3.4808952  )
        92        O      tau(  92) = (  -1.4533575  -0.9784800   3.2298139  )
        93        O      tau(  93) = (  -1.3129145  -0.9363857   3.0412524  )
        94        O      tau(  94) = (  -1.4815427  -1.8124751   3.2120687  )
        95        O      tau(  95) = (  -1.3535389  -1.1000631   3.3266217  )
        96        O      tau(  96) = (  -1.6913544  -1.9171735   3.3881674  )
        97        K      tau(  97) = (  -1.4636251  -1.0743448   3.0289343  )
        98        K      tau(  98) = (  -1.0563614  -1.4402988   2.7509236  )
        99        K      tau(  99) = (  -1.5921097  -1.5725456   3.0104823  )
       100        Al     tau( 100) = (  -1.3146049  -1.3968320   3.2534369  )
       101        Al     tau( 101) = (  -1.4748437  -1.3615404   2.9723425  )
       102        Si     tau( 102) = (  -1.3304094  -1.1240120   2.8025782  )
       103        Si     tau( 103) = (  -1.1920654  -1.3631598   2.9590114  )
       104        Si     tau( 104) = (  -1.2063654  -1.1481109   2.9664701  )
       105        Si     tau( 105) = (  -1.3363274  -1.3305012   2.8041701  )
       106        Si     tau( 106) = (  -1.4536611  -1.2614627   3.1654627  )
       107        Si     tau( 107) = (  -1.3314496  -1.4971707   3.0643912  )
       108        O      tau( 108) = (  -1.7002427  -1.3597102   3.2746609  )
       109        O      tau( 109) = (  -1.0866618  -1.3934744   2.9485469  )
       110        O      tau( 110) = (  -1.2183795  -1.0887085   3.0589808  )
       111        O      tau( 111) = (  -1.3208380  -1.6101775   3.0494459  )
       112        O      tau( 112) = (  -1.3469274  -1.4116851   2.7242280  )
       113        O      tau( 113) = (  -1.1242107  -1.1282698   2.8980167  )
       114        O      tau( 114) = (  -1.4277041  -1.3264285   2.8660721  )
       115        O      tau( 115) = (  -1.5497219  -1.3142171   3.1957875  )
       116        O      tau( 116) = (  -1.2407474  -1.4408131   3.0261735  )
       117        O      tau( 117) = (  -1.3273714  -1.4885051   3.1752537  )
       118        O      tau( 118) = (  -1.4557371  -1.2706199   3.0533756  )
       119        O      tau( 119) = (  -1.3153079  -1.2310723   2.7582487  )
       120        O      tau( 120) = (  -1.2006551  -1.2587973   3.0010531  )
       121        O      tau( 121) = (  -1.3581585  -1.2838444   3.2190098  )
       122        O      tau( 122) = (  -1.4190049  -1.4659200   3.0054949  )
       123        O      tau( 123) = (  -1.3039068  -1.1252435   2.9120881  )
       124        O      tau( 124) = (  -1.2446840  -1.3658151   2.8577562  )
       125        H      tau( 125) = (  -1.6919179  -1.3855481   3.7170256  )
       126        H      tau( 126) = (  -1.5597975  -1.1505719   3.6618588  )
       127        H      tau( 127) = (  -1.3938327  -1.1933524   3.6687442  )
       128        H      tau( 128) = (  -1.6680692  -2.0265858   3.5971514  )
       129        H      tau( 129) = (  -1.9094044  -1.9760251   3.7414335  )
       130        H      tau( 130) = (  -1.7836205  -1.6175830   3.6604783  )
       131        H      tau( 131) = (  -1.6340662  -1.7007287   3.6720450  )
       132        H      tau( 132) = (  -1.5295331  -1.5219265   3.5871043  )
       133        H      tau( 133) = (  -0.8420656  -0.6424049   2.5494819  )
       134        H      tau( 134) = (  -1.0598412  -0.5314331   2.5614270  )
       135        H      tau( 135) = (  -1.1143003  -0.6796195   2.6578507  )
       136        H      tau( 136) = (  -1.0452213  -0.8277614   2.5565120  )
       137        H      tau( 137) = (  -1.1895271  -1.3755573   2.5736449  )
       138        H      tau( 138) = (  -1.0157858  -1.1532117   2.5629187  )
       139        H      tau( 139) = (  -1.1916509  -1.0632497   2.5590892  )
       140        H      tau( 140) = (  -1.2589306  -1.1898296   2.6478148  )
       141        K      tau( 141) = (  -0.4550421  -0.9129827   2.7497602  )
       142        Al     tau( 142) = (  -0.4302328  -0.6111109   2.7801463  )
       143        Si     tau( 143) = (  -0.5591946  -0.8414066   2.9578480  )
       144        Si     tau( 144) = (  -0.9759035  -1.6601260   2.8047880  )
       145        Si     tau( 145) = (  -0.7088184  -0.8224061   2.7980640  )
       146        Si     tau( 146) = (  -0.8392854  -1.6794943   2.9549258  )
       147        Si     tau( 147) = (  -0.4889425  -0.7235042   2.6084338  )
       148        Si     tau( 148) = (  -0.8359002  -1.5262859   2.6889214  )
       149        O      tau( 149) = (  -1.0760920  -1.6153334   2.8203289  )
       150        O      tau( 150) = (  -0.7203042  -0.8999327   2.7185115  )
       151        O      tau( 151) = (  -0.7964292  -0.8225943   2.8643076  )
       152        O      tau( 152) = (  -0.7574944  -1.6696679   2.8866950  )
       153        O      tau( 153) = (  -0.4161290  -0.6713388   2.5363456  )
       154        O      tau( 154) = (  -0.9195006  -1.5983300   2.7299500  )
       155        O      tau( 155) = (  -0.8509602  -1.5199666   2.5756264  )
       156        O      tau( 156) = (  -0.4591231  -0.7093902   2.7161848  )
       157        O      tau( 157) = (  -0.5799961  -0.7359594   3.0032072  )
       158        O      tau( 158) = (  -0.7047022  -0.7193129   2.7499384  )
       159        O      tau( 159) = (  -0.5912530  -0.6838451   2.5861744  )
       160        O      tau( 160) = (  -0.7377205  -1.5687199   2.7099896  )
       161        O      tau( 161) = (  -0.6128948  -0.8492771   2.8578731  )
       162        O      tau( 162) = (  -0.9420369  -1.6682906   2.9090545  )
       163        Al     tau( 163) = (  -0.5546729  -1.1343869   2.7864083  )
       164        Si     tau( 164) = (  -0.7014080  -1.0066815   2.6945600  )
       165        Si     tau( 165) = (  -0.6066472  -1.2361007   2.6087121  )
       166        O      tau( 166) = (  -0.9432013  -1.0984146   2.8186033  )
       167        O      tau( 167) = (  -0.4919855  -0.8374496   2.5864861  )
       168        O      tau( 168) = (  -0.5878514  -1.3419267   2.5694201  )
       169        O      tau( 169) = (  -0.7947920  -1.0614856   2.7301282  )
       170        O      tau( 170) = (  -0.5555398  -1.1580363   2.5498826  )
       171        O      tau( 171) = (  -0.5872300  -1.2281346   2.7203594  )
       172        O      tau( 172) = (  -0.7010870  -1.0146785   2.5858572  )
       173        O      tau( 173) = (  -0.6101159  -1.0335279   2.7454798  )
       174        O      tau( 174) = (  -0.7194706  -1.2140668   2.5858850  )
       175        O      tau( 175) = (  -1.3167560  -1.9276768   3.6571219  )
       176        Al     tau( 176) = (  -1.0904754  -1.0999645   3.4520900  )
       177        Si     tau( 177) = (  -0.9509217  -1.2363379   3.5439939  )
       178        Si     tau( 178) = (  -1.2911388  -2.0365350   3.6258842  )
       179        O      tau( 179) = (  -1.7054029  -1.1218423   3.4133824  )
       180        O      tau( 180) = (  -1.2502140  -1.4275605   3.6719670  )
       181        O      tau( 181) = (  -0.8590909  -1.1879375   3.4989019  )
       182        O      tau( 182) = (  -1.3314352  -2.1114539   3.7035498  )
       183        O      tau( 183) = (  -1.3369284  -2.0571667   3.5294995  )
       184        O      tau( 184) = (  -0.9515084  -1.2294964   3.6571163  )
       185        O      tau( 185) = (  -1.0426555  -1.2049055   3.4912651  )
       186        O      tau( 186) = (  -1.1804200  -2.0541533   3.6381745  )
       187        K      tau( 187) = (  -1.2352200  -1.3200629   3.4838008  )
       188        K      tau( 188) = (  -0.8461231  -1.7031892   3.2227392  )
       189        K      tau( 189) = (  -1.3544275  -1.8464415   3.4681430  )
       190        Al     tau( 190) = (  -1.2311910  -1.6283226   3.4536708  )
       191        Si     tau( 191) = (  -1.0973759  -1.3957225   3.2865782  )
       192        Si     tau( 192) = (  -0.9551948  -1.6293190   3.4419594  )
       193        Si     tau( 193) = (  -0.9480772  -1.4165157   3.4350684  )
       194        Si     tau( 194) = (  -1.0941237  -1.6033250   3.2815185  )
       195        Si     tau( 195) = (  -1.1939553  -1.5165666   3.6296303  )
       196        Si     tau( 196) = (  -1.0885744  -1.7663966   3.5452909  )
       197        O      tau( 197) = (  -1.8500622  -1.6536845   3.4301034  )
       198        O      tau( 198) = (  -0.9379877  -1.3437048   3.5184004  )
       199        O      tau( 199) = (  -1.0656213  -1.8784671   3.5174041  )
       200        O      tau( 200) = (  -1.0976384  -1.6697969   3.1927484  )
       201        O      tau( 201) = (  -0.8546716  -1.4225845   3.3749476  )
       202        O      tau( 202) = (  -1.1846772  -1.6177612   3.3425522  )
       203        O      tau( 203) = (  -1.2159221  -1.6119445   3.6915824  )
       204        O      tau( 204) = (  -0.9985594  -1.7074368   3.5101568  )
       205        O      tau( 205) = (  -1.0906075  -1.7568254   3.6570217  )
       206        O      tau( 206) = (  -1.2217370  -1.5333518   3.5244342  )
       207        O      tau( 207) = (  -1.0823835  -1.4964938   3.2429279  )
       208        O      tau( 208) = (  -0.9632448  -1.5219150   3.4879866  )
       209        O      tau( 209) = (  -1.0805827  -1.4852322   3.6398276  )
       210        O      tau( 210) = (  -1.1823773  -1.7273679   3.5019133  )
       211        O      tau( 211) = (  -1.0419364  -1.3821191   3.3851617  )
       212        O      tau( 212) = (  -0.9943445  -1.6270877   3.3357781  )
       213        K      tau( 213) = (  -0.6754672  -1.1631301   3.2246707  )
       214        Al     tau( 214) = (  -0.8367487  -0.8370193   2.9784653  )
       215        Al     tau( 215) = (  -0.9409041  -1.9115641   3.2606452  )
       216        Si     tau( 216) = (  -0.8138498  -1.1062856   3.4269696  )
       217        Si     tau( 217) = (  -1.2209017  -1.9115034   3.2683878  )
       218        Si     tau( 218) = (  -0.9638158  -1.0748920   3.2694955  )
       219        Si     tau( 219) = (  -1.0752373  -1.9489720   3.4258118  )
       220        Si     tau( 220) = (  -0.6815247  -0.9729394   3.0706254  )
       221        Si     tau( 221) = (  -1.0847645  -1.7793005   3.1582711  )
       222        O      tau( 222) = (  -1.4523045  -0.8554449   2.9304399  )
       223        O      tau( 223) = (  -1.3273454  -1.8864232   3.2941093  )
       224        O      tau( 224) = (  -0.9843927  -1.1520576   3.1878556  )
       225        O      tau( 225) = (  -1.0501311  -1.0801197   3.3411718  )
       226        O      tau( 226) = (  -0.9803889  -1.9474729   3.3733947  )
       227        O      tau( 227) = (  -0.5882781  -0.9302961   3.0263683  )
       228        O      tau( 228) = (  -1.1824114  -1.8308992   3.2037138  )
       229        O      tau( 229) = (  -1.0863241  -1.7813296   3.0464846  )
       230        O      tau( 230) = (  -0.6777992  -0.9587866   3.1789719  )
       231        O      tau( 231) = (  -1.1015310  -2.0509602   3.4706645  )
       232        O      tau( 232) = (  -0.9470362  -0.9758911   3.2264073  )
       233        O      tau( 233) = (  -0.7721424  -0.9213240   3.0288842  )
       234        O      tau( 234) = (  -0.9954405  -1.8226028   3.2084061  )
       235        O      tau( 235) = (  -0.8710601  -1.1078324   3.3245009  )
       236        O      tau( 236) = (  -1.1582515  -1.9153469   3.3591563  )
       237        K      tau( 237) = (  -0.9434100  -1.0715351   3.0175291  )
       238        K      tau( 238) = (  -0.5609521  -1.4362537   2.7413163  )
       239        K      tau( 239) = (  -1.0869827  -1.5801961   3.0045042  )
       240        Al     tau( 240) = (  -0.8179615  -1.3972721   3.2615692  )
       241        Al     tau( 241) = (  -0.9787983  -1.3588504   2.9817216  )
       242        Si     tau( 242) = (  -0.8387865  -1.1369981   2.7985204  )
       243        Si     tau( 243) = (  -0.6985244  -1.3648174   2.9593565  )
       244        Si     tau( 244) = (  -0.6864904  -1.1604054   2.9573193  )
       245        Si     tau( 245) = (  -0.8482620  -1.3426492   2.8024390  )
       246        Si     tau( 246) = (  -0.9658093  -1.2627975   3.1720086  )
       247        Si     tau( 247) = (  -0.8404885  -1.4988748   3.0748891  )
       248        O      tau( 248) = (  -1.2069089  -1.3694286   3.2982617  )
       249        O      tau( 249) = (  -1.5881068  -1.3945335   2.9538682  )
       250        O      tau( 250) = (  -0.6746406  -1.0865817   3.0436793  )
       251        O      tau( 251) = (  -0.8282135  -1.6081590   3.0461006  )
       252        O      tau( 252) = (  -0.8553901  -1.4183949   2.7236713  )
       253        O      tau( 253) = (  -0.5917510  -1.1539446   2.9008610  )
       254        O      tau( 254) = (  -0.9287364  -1.3300285   2.8756850  )
       255        O      tau( 255) = (  -1.0530491  -1.3293961   3.2080221  )
       256        O      tau( 256) = (  -0.7485662  -1.4359475   3.0328307  )
       257        O      tau( 257) = (  -0.8353357  -1.4947602   3.1878612  )
       258        O      tau( 258) = (  -0.9657755  -1.2671938   3.0578230  )
       259        O      tau( 259) = (  -0.8408573  -1.2385182   2.7560445  )
       260        O      tau( 260) = (  -0.7096214  -1.2602653   3.0032851  )
       261        O      tau( 261) = (  -0.8697337  -1.2995624   3.2187037  )
       262        O      tau( 262) = (  -0.9305761  -1.4626819   3.0195441  )
       263        O      tau( 263) = (  -0.7806327  -1.1348326   2.8982115  )
       264        O      tau( 264) = (  -0.7485665  -1.3684622   2.8555185  )
       265        H      tau( 265) = (  -1.3081852  -1.4413495   3.7074740  )
       266        H      tau( 266) = (  -1.3836216  -2.1391431   3.6689112  )
       267        H      tau( 267) = (  -0.9941693  -1.1856755   3.6872797  )
       268        H      tau( 268) = (  -1.1364625  -2.0628586   3.5883122  )
       269        H      tau( 269) = (  -1.2814836  -1.9021704   3.7047187  )
       270        H      tau( 270) = (  -1.2729956  -1.6425636   3.6707814  )
       271        H      tau( 271) = (  -1.1427639  -1.7203019   3.6760415  )
       272        H      tau( 272) = (  -1.0506750  -1.4981447   3.5837312  )
       273        H      tau( 273) = (  -0.3514847  -0.6689012   2.5522872  )
       274        H      tau( 274) = (  -0.5997812  -0.5315830   2.5456746  )
       275        H      tau( 275) = (  -0.6331307  -0.6922344   2.6390035  )
       276        H      tau( 276) = (  -0.5504870  -0.8525616   2.5558107  )
       277        H      tau( 277) = (  -0.5429066  -1.3379114   2.5205876  )
       278        H      tau( 278) = (  -0.5837841  -1.0994611   2.5350542  )
       279        H      tau( 279) = (  -0.7320168  -1.0685183   2.5634698  )
       280        H      tau( 280) = (  -0.7654695  -1.2257599   2.6316282  )
       281        O      tau( 281) = (  -1.5802428  -2.2001775   4.2973993  )
       282        H      tau( 282) = (  -1.5916576  -2.2646125   4.2809010  )
       283        H      tau( 283) = (  -1.6202833  -2.1681580   4.2533760  )
       284        O      tau( 284) = (  -1.8905858  -2.0280047   4.1266887  )
       285        H      tau( 285) = (  -1.9509543  -2.0443387   4.1431815  )
       286        H      tau( 286) = (  -1.8519832  -2.0371919   4.1822786  )
       287        O      tau( 287) = (  -1.4748040  -1.8945259   4.4128206  )
       288        H      tau( 288) = (  -1.4119097  -1.9203953   4.4125033  )
       289        H      tau( 289) = (  -1.5217103  -1.9454644   4.4183590  )
       290        O      tau( 290) = (  -1.3757365  -1.5815619   4.0853205  )
       291        H      tau( 291) = (  -1.3203241  -1.6064698   4.0507599  )
       292        H      tau( 292) = (  -1.3841270  -1.5173931   4.0650205  )
       293        O      tau( 293) = (  -1.4422292  -1.8943070   4.2164720  )
       294        H      tau( 294) = (  -1.4762389  -1.8919745   4.2733699  )
       295        H      tau( 295) = (  -1.4012264  -1.8397109   4.2135998  )
       296        O      tau( 296) = (  -2.1640331  -1.6534862   4.2900742  )
       297        H      tau( 297) = (  -2.1504153  -1.6142555   4.2382415  )
       298        H      tau( 298) = (  -2.2255647  -1.6820316   4.2732196  )
       299        O      tau( 299) = (  -1.6343124  -1.7211396   4.4535821  )
       300        H      tau( 300) = (  -1.6598193  -1.7498497   4.3965839  )
       301        H      tau( 301) = (  -1.5705150  -1.7471030   4.4599498  )
       302        O      tau( 302) = (  -1.3789100  -1.6857065   3.6788191  )
       303        H      tau( 303) = (  -1.3779406  -1.7048231   3.7441332  )
       304        H      tau( 304) = (  -1.4409139  -1.6933598   3.6668795  )
       305        O      tau( 305) = (  -1.3934202  -1.7444414   3.8842740  )
       306        H      tau( 306) = (  -1.4446252  -1.7242195   3.9208052  )
       307        H      tau( 307) = (  -1.3980839  -1.8144517   3.8894896  )
       308        O      tau( 308) = (  -1.5855760  -1.6888414   3.9249631  )
       309        H      tau( 309) = (  -1.6429272  -1.6799350   3.9621789  )
       310        H      tau( 310) = (  -1.5910386  -1.7367912   3.8797376  )
       311        O      tau( 311) = (  -2.0972667  -1.5197431   4.1756214  )
       312        H      tau( 312) = (  -2.0802512  -1.4563603   4.1971405  )
       313        H      tau( 313) = (  -2.0699495  -1.5258885   4.1161797  )
       314        O      tau( 314) = (  -1.0186782  -1.4473540   3.8144569  )
       315        H      tau( 315) = (  -1.0361049  -1.4567420   3.7481575  )
       316        H      tau( 316) = (  -1.9583199  -1.4164801   3.8190768  )
       317        O      tau( 317) = (  -1.9998732  -2.2727747   4.1672721  )
       318        H      tau( 318) = (  -2.0299839  -2.2132371   4.1498498  )
       319        H      tau( 319) = (  -1.9887936  -2.3001732   4.1059879  )
       320        O      tau( 320) = (  -1.3853180  -2.1998811   4.2523964  )
       321        H      tau( 321) = (  -1.3628545  -2.1361269   4.2708039  )
       322        H      tau( 322) = (  -1.4464740  -2.2009481   4.2772385  )
       323        O      tau( 323) = (  -1.5425933  -1.5206570   3.8253054  )
       324        H      tau( 324) = (  -1.5586014  -1.5738632   3.8603226  )
       325        H      tau( 325) = (  -1.5520920  -1.5339186   3.7575923  )
       326        O      tau( 326) = (  -1.1985869  -1.4636383   3.9153002  )
       327        H      tau( 327) = (  -1.1369363  -1.4603798   3.8960355  )
       328        H      tau( 328) = (  -1.2474980  -1.4505651   3.8693677  )
       329        O      tau( 329) = (  -2.1176789  -2.4137625   4.2237415  )
       330        H      tau( 330) = (  -2.0832295  -2.4605132   4.2551350  )
       331        H      tau( 331) = (  -2.0711799  -2.3619767   4.2232238  )
       332        O      tau( 332) = (  -1.5958353  -2.0426784   4.4554802  )
       333        H      tau( 333) = (  -1.5685310  -2.0945365   4.4259179  )
       334        H      tau( 334) = (  -1.6516581  -2.0279018   4.4164609  )
       335        O      tau( 335) = (  -1.6570427  -2.0486933   3.9140422  )
       336        H      tau( 336) = (  -1.6333963  -2.1028051   3.9484749  )
       337        H      tau( 337) = (  -1.6542953  -1.9944639   3.9568520  )
       338        O      tau( 338) = (  -1.3229245  -1.7379379   4.1915575  )
       339        H      tau( 339) = (  -1.3289623  -1.6754346   4.1687416  )
       340        H      tau( 340) = (  -1.2861552  -1.7660625   4.1390959  )
       341        O      tau( 341) = (  -2.1538470  -1.9647554   4.2018718  )
       342        H      tau( 342) = (  -2.1915311  -1.9305700   4.1592901  )
       343        H      tau( 343) = (  -2.1144713  -1.9146533   4.2262240  )
       344        O      tau( 344) = (  -1.4238354  -2.2207050   4.0747503  )
       345        H      tau( 345) = (  -1.4023161  -2.2112651   4.1403928  )
       346        H      tau( 346) = (  -1.3717840  -2.2584999   4.0512051  )
       347        O      tau( 347) = (  -1.7409159  -1.8059454   4.3181335  )
       348        H      tau( 348) = (  -1.8007406  -1.7728380   4.3112537  )
       349        H      tau( 349) = (  -1.7109869  -1.8024340   4.2576899  )
       350        O      tau( 350) = (  -1.9832628  -2.3762132   4.0208358  )
       351        H      tau( 351) = (  -1.6871801  -1.3875876   4.0474368  )
       352        H      tau( 352) = (  -1.6908053  -1.3296400   3.9584607  )
       353        O      tau( 353) = (  -1.2927631  -2.3246464   3.9885072  )
       354        H      tau( 354) = (  -1.9825421  -1.3324685   4.0041483  )
       355        H      tau( 355) = (  -1.0551449  -1.2868181   3.9256088  )
       356        O      tau( 356) = (  -1.6185179  -1.7847874   4.1502506  )
       357        H      tau( 357) = (  -1.6025523  -1.7187497   4.1421350  )
       358        H      tau( 358) = (  -1.5648430  -1.8250219   4.1505679  )
       359        O      tau( 359) = (  -1.3475108  -2.0337394   4.0035416  )
       360        H      tau( 360) = (  -1.3767570  -2.0907624   4.0279829  )
       361        H      tau( 361) = (  -1.3840308  -2.0159222   3.9500223  )
       362        O      tau( 362) = (  -1.2071511  -1.2062392   3.6331816  )
       363        H      tau( 363) = (  -1.2501035  -1.1649995   3.6686050  )
       364        H      tau( 364) = (  -1.1774884  -1.2424784   3.6810400  )
       365        O      tau( 365) = (  -1.3285313  -2.0246954   4.2913822  )
       366        H      tau( 366) = (  -1.3704632  -1.9846219   4.2517507  )
       367        H      tau( 367) = (  -2.2636906  -2.0165758   4.2700191  )
       368        O      tau( 368) = (  -2.0570855  -1.7049811   4.0676812  )
       369        H      tau( 369) = (  -2.0116910  -1.6690375   4.0326640  )
       370        H      tau( 370) = (  -2.1158812  -1.7107119   4.0334545  )
       371        O      tau( 371) = (  -1.6043914  -1.5630400   4.3645558  )
       372        H      tau( 372) = (  -1.6722282  -1.5619115   4.3529892  )
       373        H      tau( 373) = (  -1.6089595  -1.6189489   4.4069872  )
       374        O      tau( 374) = (  -1.7937998  -1.5314323   4.3020527  )
       375        H      tau( 375) = (  -1.7923435  -1.5505402   4.2373008  )
       376        H      tau( 376) = (  -1.8349124  -1.5811406   4.3218852  )
       377        O      tau( 377) = (  -2.3319893  -2.3954822   4.2837788  )
       378        H      tau( 378) = (  -2.3745513  -2.3456220   4.2659780  )
       379        H      tau( 379) = (  -2.2694879  -2.3650853   4.2761252  )
       380        O      tau( 380) = (  -1.3889472  -1.2712182   3.8742103  )
       381        H      tau( 381) = (  -1.6278170  -2.2839815   3.9277240  )
       382        H      tau( 382) = (  -1.7117902  -2.2827625   3.8763978  )
       383        O      tau( 383) = (  -1.2605121  -1.8576483   4.0590981  )
       384        H      tau( 384) = (  -1.3042998  -1.9115749   4.0407963  )
       385        H      tau( 385) = (  -1.2505146  -1.8347016   3.9939509  )
       386        O      tau( 386) = (  -1.6002464  -2.1900265   4.0212922  )
       387        H      tau( 387) = (  -1.6464019  -2.2153884   4.0661505  )
       388        H      tau( 388) = (  -1.5409051  -2.1991121   4.0495965  )
       389        O      tau( 389) = (  -1.4253671  -1.9311155   3.8753068  )
       390        H      tau( 390) = (  -1.4066235  -1.9369376   3.8098369  )
       391        H      tau( 391) = (  -1.4929241  -1.9240782   3.8695514  )
       392        O      tau( 392) = (  -1.5942607  -1.8427473   3.8156814  )
       393        H      tau( 393) = (  -1.6608047  -1.8473108   3.8418983  )
       394        H      tau( 394) = (  -1.5927953  -1.8494386   3.7504786  )
       395        O      tau( 395) = (  -2.0448257  -1.7830760   3.8484888  )
       396        H      tau( 396) = (  -1.0448918  -1.7708116   3.7802301  )
       397        H      tau( 397) = (  -2.0113457  -1.8452819   3.8499582  )
       398        O      tau( 398) = (  -1.8422456  -2.0711877   3.9471000  )
       399        H      tau( 399) = (  -1.7798033  -2.0490831   3.9276962  )
       400        H      tau( 400) = (  -1.8516244  -2.0637727   4.0155980  )
       401        O      tau( 401) = (  -2.0795374  -2.1107369   4.1218684  )
       402        H      tau( 402) = (  -2.1118779  -2.0649329   4.1582214  )
       403        H      tau( 403) = (  -2.1195491  -2.1238960   4.0696405  )
       404        O      tau( 404) = (  -1.5925453  -2.3915820   4.2355140  )
       405        H      tau( 405) = (  -1.5532231  -2.4313070   4.2704978  )
       406        H      tau( 406) = (  -1.5673543  -2.3972082   4.1695376  )
       407        O      tau( 407) = (  -1.7897031  -1.8404880   3.8493849  )
       408        H      tau( 408) = (  -1.8117039  -1.8593063   3.9115541  )
       409        H      tau( 409) = (  -1.7832455  -1.8962285   3.8102599  )
       410        O      tau( 410) = (  -1.8952920  -1.7002043   4.2724682  )
       411        H      tau( 411) = (  -1.9490450  -1.7440350   4.2814577  )
       412        H      tau( 412) = (  -1.9060226  -1.6809769   4.2092637  )
       413        O      tau( 413) = (  -1.6368007  -1.3512466   3.8496911  )
       414        H      tau( 414) = (  -1.5871311  -1.4000876   3.8431674  )
       415        H      tau( 415) = (  -1.6041333  -1.2927870   3.8566711  )
       416        O      tau( 416) = (  -1.2294721  -1.6709955   3.9803304  )
       417        H      tau( 417) = (  -1.2873683  -1.6963339   3.9448513  )
       418        H      tau( 418) = (  -1.2138211  -1.6097220   3.9557722  )
       419        O      tau( 419) = (  -1.9738241  -1.9792168   3.8472197  )
       420        H      tau( 420) = (  -2.0371561  -2.0125816   3.8495686  )
       421        H      tau( 421) = (  -1.9264363  -2.0178969   3.8801940  )
       422        O      tau( 422) = (  -1.7559978  -2.0858780   4.2611743  )
       423        H      tau( 423) = (  -1.7927965  -2.1468860   4.2711601  )
       424        H      tau( 424) = (  -1.7658236  -2.0552811   4.3191187  )
       425        O      tau( 425) = (  -1.8997891  -1.3243852   3.8405736  )
       426        H      tau( 426) = (  -1.8952377  -1.2969301   3.7775695  )
       427        H      tau( 427) = (  -1.8418139  -1.3274544   3.8696571  )
       428        O      tau( 428) = (  -1.8093995  -2.2267834   3.8513721  )
       429        H      tau( 429) = (  -1.8198871  -2.1958804   3.7932941  )
       430        H      tau( 430) = (  -1.8293825  -2.1767001   3.8939036  )
       431        O      tau( 431) = (  -1.8393821  -1.8491651   4.0314061  )
       432        H      tau( 432) = (  -1.8556349  -1.9063789   4.0547007  )
       433        H      tau( 433) = (  -1.8891545  -1.8090835   4.0485222  )
       434        O      tau( 434) = (  -1.7252956  -2.2796380   4.1190519  )
       435        H      tau( 435) = (  -1.7179528  -2.3456527   4.1346317  )
       436        H      tau( 436) = (  -1.7872437  -2.2594535   4.1433986  )
       437        O      tau( 437) = (  -1.5488445  -1.6144048   4.1791727  )
       438        H      tau( 438) = (  -1.4827803  -1.6171841   4.1552713  )
       439        H      tau( 439) = (  -1.5483870  -1.6160424   4.2472699  )
       440        O      tau( 440) = (  -1.9545906  -1.6167323   3.9280580  )
       441        H      tau( 441) = (  -1.9889245  -1.5742612   3.8880145  )
       442        H      tau( 442) = (  -1.9766396  -1.6777780   3.9028151  )
       443        O      tau( 443) = (  -1.6133532  -1.4389075   4.1235438  )
       444        H      tau( 444) = (  -1.6042055  -1.5048036   4.1325221  )
       445        H      tau( 445) = (  -1.8464324  -2.4573544   4.1746585  )
       446        O      tau( 446) = (  -1.4842004  -2.4983911   4.3557278  )
       447        H      tau( 447) = (  -2.4206065  -2.4744650   4.3595963  )
       448        H      tau( 448) = (  -1.4769804  -2.5618903   4.3277687  )
       449        O      tau( 449) = (  -1.7724935  -2.4271681   4.3011176  )
       450        H      tau( 450) = (  -1.7949327  -2.4914798   4.3158068  )
       451        H      tau( 451) = (  -1.7082847  -2.4291091   4.2878087  )
       452        O      tau( 452) = (  -1.7522471  -1.6657952   4.0010590  )
       453        H      tau( 453) = (  -1.7953317  -1.6573016   3.9522154  )
       454        H      tau( 454) = (  -1.7565459  -1.7275504   4.0228675  )
       455        O      tau( 455) = (  -1.2232826  -1.8727676   3.8260680  )
       456        H      tau( 456) = (  -1.1924706  -1.9314092   3.8403175  )
       457        H      tau( 457) = (  -1.1709612  -1.8317222   3.8199897  )
       458        O      tau( 458) = (  -2.1850570  -2.1442203   3.9593680  )
       459        H      tau( 459) = (  -2.1946968  -2.2123018   3.9574977  )
       460        H      tau( 460) = (  -1.2442668  -2.1147978   3.9617893  )
       461        O      tau( 461) = (  -1.8657748  -1.5630019   4.1275515  )
       462        H      tau( 462) = (  -1.8925734  -1.5012226   4.1158068  )
       463        H      tau( 463) = (  -1.8263430  -1.5865175   4.0793703  )
       464        O      tau( 464) = (  -1.1372672  -1.2757267   3.8230066  )
       465        H      tau( 465) = (  -1.1192457  -1.3388120   3.8140338  )
       466        H      tau( 466) = (  -1.2003009  -1.2851924   3.8427778  )
       467        O      tau( 467) = (  -1.1375400  -2.0361661   3.8109223  )
       468        H      tau( 468) = (  -1.1506383  -2.0566772   3.7502003  )
       469        H      tau( 469) = (  -1.1630296  -2.0806033   3.8552963  )
       470        O      tau( 470) = (  -1.4457575  -1.4138000   4.0524742  )
       471        H      tau( 471) = (  -1.5146337  -1.4232632   4.0576620  )
       472        H      tau( 472) = (  -1.4382215  -1.3727624   4.0001963  )
       473        O      tau( 473) = (  -1.7617779  -1.9755387   4.4026177  )
       474        H      tau( 474) = (  -1.7782340  -1.9670146   4.4679485  )
       475        H      tau( 475) = (  -1.7577151  -1.9122077   4.3747699  )
       476        O      tau( 476) = (  -1.9012466  -1.3858866   4.0585470  )
       477        H      tau( 477) = (  -1.8411395  -1.3666562   4.0335379  )
       478        H      tau( 478) = (  -2.1630194  -2.4213402   4.1266498  )
       479        O      tau( 479) = (  -1.3631116  -1.4475721   3.8099037  )
       480        H      tau( 480) = (  -1.4182373  -1.4883607   3.8078275  )
       481        H      tau( 481) = (  -1.3773622  -1.3839974   3.8329479  )
       482        O      tau( 482) = (  -2.0631527  -1.7971707   4.2293077  )
       483        H      tau( 483) = (  -2.1157124  -1.7586750   4.2645252  )
       484        H      tau( 484) = (  -2.0622935  -1.7746631   4.1667656  )
       485        O      tau( 485) = (  -1.8464063  -2.2535225   4.2860888  )
       486        H      tau( 486) = (  -1.9033185  -2.2635665   4.2466298  )
       487        H      tau( 487) = (  -1.8244353  -2.3171935   4.3047913  )
       488        O      tau( 488) = (  -1.5877099  -2.1562569   3.7521652  )
       489        H      tau( 489) = (  -1.6081217  -2.1988721   3.7995616  )
       490        H      tau( 490) = (  -1.6123033  -2.0965950   3.7685355  )
       491        O      tau( 491) = (  -1.4952672  -2.4036930   4.0741269  )
       492        H      tau( 492) = (  -1.2079674  -1.4127664   4.0391042  )
       493        H      tau( 493) = (  -1.4508412  -2.3553822   4.0730915  )

     number of k points=     1
                       cart. coord. in units 2pi/alat
        k(    1) = (   0.0000000   0.0000000   0.0000000), wk =   2.0000000

     Dense  grid:  3184389 G-vectors     FFT dimensions: ( 192, 200, 480)

     Estimated max dynamical RAM per process >     493.86 MB

     Estimated total dynamical RAM >      57.87 GB

     WARNING: libxc functional with ID  263 depends
      on external parameters: check the user_guide of
      QE if you need to modify them or to check their
      default values.

     Initial potential from superposition of free atoms

     starting charge    2103.6163, renormalised to    2104.0000
     Starting wfcs are 1530 randomized atomic wfcs

     total cpu time spent up to now is       37.0 secs

     Self-consistent Calculation

     iteration #  1     ecut=   110.00 Ry     beta= 0.50
     Davidson diagonalization with overlap
     ethr =  1.00E-02,  avg # of iterations =  2.0

     total cpu time spent up to now is      117.2 secs

     total energy              =  -11160.79929263 Ry
     estimated scf accuracy    <    4095.89779449 Ry

     iteration #  2     ecut=   110.00 Ry     beta= 0.50
     Davidson diagonalization with overlap
     ethr =  1.00E-02,  avg # of iterations =  2.0

     total cpu time spent up to now is      185.8 secs

     total energy              =  -11180.58770365 Ry
     estimated scf accuracy    <     538.36481297 Ry

     iteration #  3     ecut=   110.00 Ry     beta= 0.50
     Davidson diagonalization with overlap
     ethr =  1.00E-02,  avg # of iterations =  1.0

     total cpu time spent up to now is      242.4 secs

     total energy              =  -11182.18674166 Ry
     estimated scf accuracy    <      51.17825844 Ry

     iteration #  4     ecut=   110.00 Ry     beta= 0.50
     Davidson diagonalization with overlap
     ethr =  2.43E-03,  avg # of iterations =  1.0

     total cpu time spent up to now is      300.0 secs

     total energy              =  -11182.33083811 Ry
     estimated scf accuracy    <       0.90523030 Ry

     iteration #  5     ecut=   110.00 Ry     beta= 0.50
     Davidson diagonalization with overlap
     ethr =  4.30E-05,  avg # of iterations =  8.0

     total cpu time spent up to now is      362.1 secs

     total energy              =  -11182.36786106 Ry
     estimated scf accuracy    <       0.04651343 Ry

     iteration #  6     ecut=   110.00 Ry     beta= 0.50
     Davidson diagonalization with overlap
     ethr =  2.21E-06,  avg # of iterations = 17.0

     total cpu time spent up to now is      444.1 secs

     total energy              =  -11182.37343314 Ry
     estimated scf accuracy    <       0.02236982 Ry

     iteration #  7     ecut=   110.00 Ry     beta= 0.50
     Davidson diagonalization with overlap
     c_bands:  1 eigenvalues not converged
     ethr =  1.06E-06,  avg # of iterations = 20.0

     total cpu time spent up to now is      508.0 secs

     total energy              =  -11182.34757885 Ry
     estimated scf accuracy    <       2.62896947 Ry

     iteration #  8     ecut=   110.00 Ry     beta= 0.50
     Davidson diagonalization with overlap
     c_bands:  1 eigenvalues not converged
     ethr =  1.06E-06,  avg # of iterations = 20.0

     total cpu time spent up to now is      569.5 secs

     total energy              =  -11182.37623726 Ry
     estimated scf accuracy    <       0.01443361 Ry

     iteration #  9     ecut=   110.00 Ry     beta= 0.50
     Davidson diagonalization with overlap
     ethr =  6.86E-07,  avg # of iterations = 12.0

     total cpu time spent up to now is      627.5 secs

     total energy              =  -11182.37678509 Ry
     estimated scf accuracy    <       0.00778071 Ry

     iteration # 10     ecut=   110.00 Ry     beta= 0.50
     Davidson diagonalization with overlap
     ethr =  3.70E-07,  avg # of iterations =  2.0

     total cpu time spent up to now is      682.4 secs

     total energy              =  -11182.37666647 Ry
     estimated scf accuracy    <       0.00782311 Ry

     iteration # 11     ecut=   110.00 Ry     beta= 0.50
     Davidson diagonalization with overlap
     ethr =  3.70E-07,  avg # of iterations =  2.0

     total cpu time spent up to now is      738.1 secs

     total energy              =  -11182.37651983 Ry
     estimated scf accuracy    <       0.00749905 Ry

     iteration # 12     ecut=   110.00 Ry     beta= 0.50
     Davidson diagonalization with overlap
     ethr =  3.56E-07,  avg # of iterations =  6.0

     total cpu time spent up to now is      794.3 secs

     total energy              =  -11182.37643771 Ry
     estimated scf accuracy    <       0.00604298 Ry

     iteration # 13     ecut=   110.00 Ry     beta= 0.50
     Davidson diagonalization with overlap
     ethr =  2.87E-07,  avg # of iterations =  1.0

     total cpu time spent up to now is      847.1 secs

     total energy              =  -11182.37630817 Ry
     estimated scf accuracy    <       0.00578070 Ry

     iteration # 14     ecut=   110.00 Ry     beta= 0.50
     Davidson diagonalization with overlap
     ethr =  2.75E-07,  avg # of iterations =  2.0

     total cpu time spent up to now is      902.0 secs

     total energy              =  -11182.37607994 Ry
     estimated scf accuracy    <       0.00526946 Ry

     iteration # 15     ecut=   110.00 Ry     beta= 0.50
     Davidson diagonalization with overlap
     ethr =  2.50E-07,  avg # of iterations = 20.0

     total cpu time spent up to now is      962.7 secs

     total energy              =  -11182.37614025 Ry
     estimated scf accuracy    <       0.00267815 Ry

     iteration # 16     ecut=   110.00 Ry     beta= 0.50
     Davidson diagonalization with overlap
     ethr =  1.27E-07,  avg # of iterations =  1.0

     total cpu time spent up to now is     1015.6 secs

     total energy              =  -11182.37527296 Ry
     estimated scf accuracy    <       0.00269646 Ry

     iteration # 17     ecut=   110.00 Ry     beta= 0.50
     Davidson diagonalization with overlap
     c_bands:  1 eigenvalues not converged
     ethr =  1.27E-07,  avg # of iterations = 20.0

     total cpu time spent up to now is     1080.3 secs

     total energy              =  -11182.36196870 Ry
     estimated scf accuracy    <       2.57419379 Ry

     iteration # 18     ecut=   110.00 Ry     beta= 0.50
     Davidson diagonalization with overlap
     c_bands:  1 eigenvalues not converged
     ethr =  1.27E-07,  avg # of iterations = 20.0

     total cpu time spent up to now is     1144.8 secs

     total energy              =  -11182.37615929 Ry
     estimated scf accuracy    <       0.00341260 Ry

     iteration # 19     ecut=   110.00 Ry     beta= 0.50
     Davidson diagonalization with overlap
     ethr =  1.27E-07,  avg # of iterations = 10.0

     total cpu time spent up to now is     1202.3 secs

     total energy              =  -11182.37619124 Ry
     estimated scf accuracy    <       0.00325423 Ry

     iteration # 20     ecut=   110.00 Ry     beta= 0.50
     Davidson diagonalization with overlap
     ethr =  1.27E-07,  avg # of iterations =  1.0

     total cpu time spent up to now is     1255.2 secs

     total energy              =  -11182.37615494 Ry
     estimated scf accuracy    <       0.00327479 Ry

     iteration # 21     ecut=   110.00 Ry     beta= 0.50
     Davidson diagonalization with overlap
     ethr =  1.27E-07,  avg # of iterations =  1.0

     total cpu time spent up to now is     1307.9 secs

     total energy              =  -11182.37609157 Ry
     estimated scf accuracy    <       0.00320969 Ry

     iteration # 22     ecut=   110.00 Ry     beta= 0.50
     Davidson diagonalization with overlap
     ethr =  1.27E-07,  avg # of iterations =  2.0

     total cpu time spent up to now is     1362.8 secs

     total energy              =  -11182.37603076 Ry
     estimated scf accuracy    <       0.00299617 Ry

     iteration # 23     ecut=   110.00 Ry     beta= 0.50
     Davidson diagonalization with overlap
     ethr =  1.27E-07,  avg # of iterations = 18.0

     total cpu time spent up to now is     1422.7 secs

     total energy              =  -11182.37602352 Ry
     estimated scf accuracy    <       0.00172354 Ry

     iteration # 24     ecut=   110.00 Ry     beta= 0.50
     Davidson diagonalization with overlap
     ethr =  8.19E-08,  avg # of iterations =  1.0

     total cpu time spent up to now is     1475.5 secs

     total energy              =  -11182.37603268 Ry
     estimated scf accuracy    <       0.00165821 Ry

     iteration # 25     ecut=   110.00 Ry     beta= 0.50
     Davidson diagonalization with overlap
     ethr =  7.88E-08,  avg # of iterations =  1.0

     total cpu time spent up to now is     1528.2 secs

     total energy              =  -11182.37609900 Ry
     estimated scf accuracy    <       0.00167545 Ry

     End of self-consistent calculation

     convergence NOT achieved after  25 iterations: stopping
     Message from routine punch:
     Nothing written, as per user request (disk_io='none')

     init_run     :     35.48s CPU     36.49s WALL (       1 calls)
     electrons    :   1465.44s CPU   1491.25s WALL (       1 calls)

     Called by init_run:
     wfcinit      :     31.91s CPU     32.68s WALL (       1 calls)
     potinit      :      0.22s CPU      0.36s WALL (       1 calls)
     hinit0       :      1.44s CPU      1.47s WALL (       1 calls)

     Called by electrons:
     c_bands      :   1209.18s CPU   1230.17s WALL (      25 calls)
     sum_band     :    249.60s CPU    252.43s WALL (      25 calls)
     v_of_rho     :      4.99s CPU      6.64s WALL (      26 calls)
     mix_rho      :      1.30s CPU      1.70s WALL (      25 calls)

     Called by c_bands:
     init_us_2    :      3.77s CPU      3.94s WALL (      51 calls)
     init_us_2:cp :      3.77s CPU      3.94s WALL (      51 calls)
     regterg      :   1202.77s CPU   1221.21s WALL (      25 calls)

     Called by *egterg:
     rdiaghg      :     22.61s CPU     24.62s WALL (     216 calls)
     h_psi        :   1031.45s CPU   1043.34s WALL (     217 calls)
     g_psi        :      0.35s CPU      0.36s WALL (     191 calls)

     Called by h_psi:
     h_psi:calbec :     83.69s CPU     85.95s WALL (     217 calls)
     vloc_psi     :    218.03s CPU    220.17s WALL (     217 calls)
     add_vuspsi   :     68.51s CPU     69.80s WALL (     217 calls)
     h_psi_meta   :    659.89s CPU    666.07s WALL (     217 calls)

     General routines
     calbec       :     83.68s CPU     85.95s WALL (     217 calls)
     fft          :      4.78s CPU      6.08s WALL (     259 calls)
     ffts         :      0.32s CPU      0.52s WALL (      50 calls)
     fftw         :   1063.48s CPU   1073.50s WALL (  280608 calls)
     interpolate  :      0.01s CPU      0.01s WALL (      26 calls)

     Parallel routines

     PWSCF        :  25m 1.08s CPU  25m28.24s WALL


   This run was terminated on:  11:43:36   9Mar2025            

=------------------------------------------------------------------------------=
   JOB DONE.
=------------------------------------------------------------------------------=
