
     Program PWSCF v.7.3 starts on  9Mar2025 at 10:33:55 

     This program is part of the open-source Quantum ESPRESSO suite
     for quantum simulation of materials; please cite
         "P. Giannozzi et al., J. Phys.:Condens. Matter 21 395502 (2009);
         "P. Giannozzi et al., J. Phys.:Condens. Matter 29 465901 (2017);
         "P. Giannozzi et al., J. Chem. Phys. 152 154105 (2020);
          URL http://www.quantum-espresso.org", 
     in publications or presentations arising from this work. More details at
     http://www.quantum-espresso.org/quote

     Parallel version (MPI & OpenMP), running on     120 processor cores
     Number of MPI processes:               120
     Threads/MPI process:                     1

     MPI processes distributed on     1 nodes
     600690 MiB available memory on the printing compute node when the environment starts

     Reading input from pw-water-90.in
Warning: card &CELL ignored
Warning: card / ignored
Warning: card &FCP ignored
Warning: card / ignored
Warning: card &RISM ignored
Warning: card / ignored

     Current dimensions of program PWSCF are:
     Max number of different atomic species (ntypx) = 10
     Max number of k-points (npk) =  40000
     Max angular momentum in pseudopotentials (lmaxx) =  4

     IMPORTANT: XC functional enforced from input :
     Exchange-correlation= SCAN
                           (   0   0   0   0   0 263 267)
     Any further DFT definition will be discarded
     Please, verify this is what you really want


     gamma-point specific algorithms are used

     R & G space division:  proc/nbgrp/npool/nimage =     120
     Subspace diagonalization in iterative solution of the eigenvalue problem:
     one sub-group per band group will be used
     ELPA distributed-memory algorithm (size of sub-group: 10* 10 procs)


     Parallelization info
     --------------------
     sticks:   dense  smooth     PW     G-vecs:    dense   smooth      PW
     Min         223     223     55                53054    53054    6618
     Max         226     226     58                53096    53096    6642
     Sum       27001   27001   6747              6368777  6368777  796049

     Using Slab Decomposition



     bravais-lattice index     =            0
     lattice parameter (alat)  =      27.1743  a.u.
     unit-cell volume          =   40863.0649 (a.u.)^3
     number of atoms/cell      =          493
     number of atomic types    =            5
     number of electrons       =      2104.00
     number of Kohn-Sham states=         1052
     kinetic-energy cutoff     =     110.0000  Ry
     charge density cutoff     =     440.0000  Ry
     scf convergence threshold =      1.0E-06
     mixing beta               =       0.5000
     number of iterations used =            8  plain     mixing
     Exchange-correlation= SCAN
                           (   0   0   0   0   0 263 267)

     celldm(1)=  27.174262  celldm(2)=   0.000000  celldm(3)=   0.000000
     celldm(4)=   0.000000  celldm(5)=   0.000000  celldm(6)=   0.000000

     crystal axes: (cart. coord. in units of alat)
               a(1) = (   1.000000   0.000000   0.000000 )  
               a(2) = (   0.263718   1.045271   0.000000 )  
               a(3) = (  -1.114529  -1.155389   1.948179 )  

     reciprocal axes: (cart. coord. in units 2 pi/alat)
               b(1) = (  1.000000 -0.252296  0.422460 )  
               b(2) = ( -0.000000  0.956690  0.567375 )  
               b(3) = (  0.000000  0.000000  0.513300 )  


     PseudoPot. # 1 for K  read from file:
     /scratch/zhouwq/DFT-feldspar-surface/script-dft/K_ONCV_PBE_sr.upf
     MD5 check sum: 1b7a13238029e3acac828725779bbc07
     Pseudo is Norm-conserving, Zval =  9.0
     Generated using ONCVPSP code by D. R. Hamann
     Using radial grid of 2222 points,  6 beta functions with: 
                l(1) =   0
                l(2) =   0
                l(3) =   1
                l(4) =   1
                l(5) =   2
                l(6) =   2

     PseudoPot. # 2 for Al read from file:
     /scratch/zhouwq/DFT-feldspar-surface/script-dft/Al_ONCV_PBE_sr.upf
     MD5 check sum: f1d308f5052db2acb2ab62005e7ebd82
     Pseudo is Norm-conserving, Zval = 11.0
     Generated using ONCVPSP code by D. R. Hamann
     Using radial grid of 1876 points,  4 beta functions with: 
                l(1) =   0
                l(2) =   0
                l(3) =   1
                l(4) =   1

     PseudoPot. # 3 for Si read from file:
     /scratch/zhouwq/DFT-feldspar-surface/script-dft/Si_ONCV_PBE_sr.upf
     MD5 check sum: 8553c464762ac42b85b1eed164b4d029
     Pseudo is Norm-conserving, Zval =  4.0
     Generated using ONCVPSP code by D. R. Hamann
     Using radial grid of 1510 points,  4 beta functions with: 
                l(1) =   0
                l(2) =   0
                l(3) =   1
                l(4) =   1

     PseudoPot. # 4 for O  read from file:
     /scratch/zhouwq/DFT-feldspar-surface/script-dft/O_ONCV_PBE_sr.upf
     MD5 check sum: 503208cc3dd01d9a06cc7045986f7d49
     Pseudo is Norm-conserving, Zval =  6.0
     Generated using ONCVPSP code by D. R. Hamann
     Using radial grid of  936 points,  4 beta functions with: 
                l(1) =   0
                l(2) =   0
                l(3) =   1
                l(4) =   1

     PseudoPot. # 5 for H  read from file:
     /scratch/zhouwq/DFT-feldspar-surface/script-dft/H_ONCV_PBE_sr.upf
     MD5 check sum: 8975ef619c0c80d0ef0fa21f3286b90d
     Pseudo is Norm-conserving, Zval =  1.0
     Generated using ONCVPSP code by D. R. Hamann
     Using radial grid of 1166 points,  2 beta functions with: 
                l(1) =   0
                l(2) =   0

     atomic species   valence    mass     pseudopotential
     K                 9.00    39.09830     K ( 1.00)
     Al               11.00    26.98154     Al( 1.00)
     Si                4.00    28.08500     Si( 1.00)
     O                 6.00    15.99900     O ( 1.00)
     H                 1.00     1.00800     H ( 1.00)

     No symmetry found



   Cartesian axes

     site n.     atom                  positions (alat units)
         1        K      tau(   1) = (  -0.9332321  -0.9234697   2.7356387  )
         2        Al     tau(   2) = (  -0.9246936  -0.6166273   2.7885067  )
         3        Si     tau(   3) = (  -1.0669335  -0.8445171   2.9707561  )
         4        Si     tau(   4) = (  -1.4682374  -1.6612818   2.8165104  )
         5        Si     tau(   5) = (  -1.2095459  -0.8233333   2.8096807  )
         6        Si     tau(   6) = (  -1.3233493  -1.6843771   2.9709509  )
         7        Si     tau(   7) = (  -0.9789006  -0.7185855   2.6103819  )
         8        Si     tau(   8) = (  -1.3364598  -1.5264878   2.6993525  )
         9        O      tau(   9) = (  -1.5746876  -1.6221731   2.8194772  )
        10        O      tau(  10) = (  -1.2195434  -0.8913112   2.7195301  )
        11        O      tau(  11) = (  -1.2998090  -0.8195962   2.8750003  )
        12        O      tau(  12) = (  -1.2312796  -1.6790220   2.9012507  )
        13        O      tau(  13) = (  -0.9399359  -0.6580745   2.5185392  )
        14        O      tau(  14) = (  -1.4141354  -1.5865401   2.7548478  )
        15        O      tau(  15) = (  -1.3510865  -1.5186923   2.5857737  )
        16        O      tau(  16) = (  -0.9370358  -0.7068093   2.7090711  )
        17        O      tau(  17) = (  -1.3428330  -1.7857400   3.0164326  )
        18        O      tau(  18) = (  -1.1926526  -0.7180643   2.7672382  )
        19        O      tau(  19) = (  -1.0873177  -0.6856618   2.6108829  )
        20        O      tau(  20) = (  -1.2353994  -1.5658984   2.7297942  )
        21        O      tau(  21) = (  -1.1188492  -0.8466054   2.8699796  )
        22        O      tau(  22) = (  -1.4234877  -1.6591910   2.9198474  )
        23        Al     tau(  23) = (  -1.0616352  -1.1250026   2.7963050  )
        24        Si     tau(  24) = (  -1.2104602  -1.0034116   2.7028926  )
        25        Si     tau(  25) = (  -1.1027798  -1.2248223   2.6180077  )
        26        O      tau(  26) = (  -1.4503403  -1.1072425   2.8257671  )
        27        O      tau(  27) = (  -0.9721906  -0.8256183   2.5698765  )
        28        O      tau(  28) = (  -1.0734197  -1.3273748   2.5760495  )
        29        O      tau(  29) = (  -1.2914239  -1.0609723   2.7542355  )
        30        O      tau(  30) = (  -1.0511695  -1.1518843   2.5485968  )
        31        O      tau(  31) = (  -1.0767452  -1.2227475   2.7224078  )
        32        O      tau(  32) = (  -1.2281925  -1.0141403   2.5918798  )
        33        O      tau(  33) = (  -1.1075041  -1.0319432   2.7350932  )
        34        O      tau(  34) = (  -1.2146390  -1.2154834   2.5960656  )
        35        O      tau(  35) = (  -1.8556620  -1.9264390   3.6384249  )
        36        Al     tau(  36) = (  -1.6090535  -1.1059003   3.4421542  )
        37        Si     tau(  37) = (  -1.4828440  -1.2348184   3.5442889  )
        38        Si     tau(  38) = (  -1.8312638  -2.0337267   3.6182919  )
        39        O      tau(  39) = (  -1.2302292  -1.1336785   3.4397997  )
        40        O      tau(  40) = (  -1.6863941  -1.3814744   3.6346510  )
        41        O      tau(  41) = (  -1.3940333  -1.1643628   3.5222467  )
        42        O      tau(  42) = (  -1.8799679  -2.0925373   3.6997536  )
        43        O      tau(  43) = (  -1.8613920  -2.0574403   3.5142758  )
        44        O      tau(  44) = (  -1.4936091  -1.2307306   3.6548898  )
        45        O      tau(  45) = (  -1.5714808  -1.2094588   3.4852869  )
        46        O      tau(  46) = (  -1.7155256  -2.0440975   3.6326416  )
        47        K      tau(  47) = (  -1.7195151  -1.3337298   3.4594096  )
        48        K      tau(  48) = (  -1.3233754  -1.6876357   3.2426663  )
        49        K      tau(  49) = (  -1.8409670  -1.8361594   3.4713881  )
        50        Al     tau(  50) = (  -1.7331289  -1.6175407   3.4552571  )
        51        Si     tau(  51) = (  -1.6015690  -1.3933082   3.2756406  )
        52        Si     tau(  52) = (  -1.4509552  -1.6195732   3.4425328  )
        53        Si     tau(  53) = (  -1.4663028  -1.4233231   3.4363542  )
        54        Si     tau(  54) = (  -1.5998709  -1.6014332   3.2804331  )
        55        Si     tau(  55) = (  -1.6938762  -1.4982221   3.6340666  )
        56        Si     tau(  56) = (  -1.5894366  -1.7592362   3.5444003  )
        57        O      tau(  57) = (  -1.3461054  -1.6369253   3.4231567  )
        58        O      tau(  58) = (  -1.4489588  -1.3382133   3.5146098  )
        59        O      tau(  59) = (  -1.5781316  -1.8682501   3.5225973  )
        60        O      tau(  60) = (  -1.6094537  -1.6676447   3.1859910  )
        61        O      tau(  61) = (  -1.3846215  -1.4179667   3.3666484  )
        62        O      tau(  62) = (  -1.6894500  -1.6126698   3.3433649  )
        63        O      tau(  63) = (  -1.7597390  -1.5300836   3.7156062  )
        64        O      tau(  64) = (  -1.4958232  -1.7027284   3.5036610  )
        65        O      tau(  65) = (  -1.5883374  -1.7546098   3.6548509  )
        66        O      tau(  66) = (  -1.7154218  -1.5241315   3.5314031  )
        67        O      tau(  67) = (  -1.5845510  -1.4952503   3.2300254  )
        68        O      tau(  68) = (  -1.4752647  -1.5206723   3.4960854  )
        69        O      tau(  69) = (  -1.5955102  -1.5423772   3.6672858  )
        70        O      tau(  70) = (  -1.6808926  -1.7178322   3.4975605  )
        71        O      tau(  71) = (  -1.5656727  -1.4062727   3.3857072  )
        72        O      tau(  72) = (  -1.5036499  -1.6179119   3.3404092  )
        73        K      tau(  73) = (  -1.2210688  -1.1674508   3.2319791  )
        74        Al     tau(  74) = (  -1.3473202  -0.8463210   2.9816604  )
        75        Al     tau(  75) = (  -1.4440321  -1.9158229   3.2646918  )
        76        Si     tau(  76) = (  -1.3360216  -1.1029926   3.4481825  )
        77        Si     tau(  77) = (  -1.7335358  -1.9198730   3.2772938  )
        78        Si     tau(  78) = (  -1.4636977  -1.0723219   3.2808394  )
        79        Si     tau(  79) = (  -1.5912442  -1.9423833   3.4391318  )
        80        Si     tau(  80) = (  -1.2062246  -0.9742062   3.0834722  )
        81        Si     tau(  81) = (  -1.5952075  -1.7822976   3.1651733  )
        82        O      tau(  82) = (  -0.9604140  -0.8665130   2.9545417  )
        83        O      tau(  83) = (  -1.8393247  -1.8808600   3.2796037  )
        84        O      tau(  84) = (  -1.4703484  -1.1457383   3.1956150  )
        85        O      tau(  85) = (  -1.5596694  -1.0772305   3.3391958  )
        86        O      tau(  86) = (  -1.5059679  -1.9386507   3.3694482  )
        87        O      tau(  87) = (  -1.1248783  -0.9168689   3.0365155  )
        88        O      tau(  88) = (  -1.6817020  -1.8352636   3.2172286  )
        89        O      tau(  89) = (  -1.6124532  -1.7948245   3.0563090  )
        90        O      tau(  90) = (  -1.2006299  -0.9685439   3.1894865  )
        91        O      tau(  91) = (  -1.6070000  -2.0406227   3.4871182  )
        92        O      tau(  92) = (  -1.4511455  -0.9726422   3.2318233  )
        93        O      tau(  93) = (  -1.2981435  -0.9440071   3.0317230  )
        94        O      tau(  94) = (  -1.4958575  -1.8137060   3.2067363  )
        95        O      tau(  95) = (  -1.3713713  -1.0956266   3.3401253  )
        96        O      tau(  96) = (  -1.6872941  -1.9230408   3.3799071  )
        97        K      tau(  97) = (  -1.4708273  -1.0951725   3.0049884  )
        98        K      tau(  98) = (  -1.0700581  -1.4189160   2.7331952  )
        99        K      tau(  99) = (  -1.5842486  -1.5873499   3.0184754  )
       100        Al     tau( 100) = (  -1.3199710  -1.3943293   3.2630721  )
       101        Al     tau( 101) = (  -1.4785718  -1.3630748   2.9892694  )
       102        Si     tau( 102) = (  -1.3478181  -1.1385829   2.8120074  )
       103        Si     tau( 103) = (  -1.1884916  -1.3581148   2.9702552  )
       104        Si     tau( 104) = (  -1.2029180  -1.1558645   2.9729381  )
       105        Si     tau( 105) = (  -1.3318148  -1.3414333   2.8106659  )
       106        Si     tau( 106) = (  -1.4590944  -1.2542741   3.1690084  )
       107        Si     tau( 107) = (  -1.3296062  -1.4995183   3.0780451  )
       108        O      tau( 108) = (  -1.7049563  -1.3545533   3.2784070  )
       109        O      tau( 109) = (  -1.0868506  -1.3943030   2.9539907  )
       110        O      tau( 110) = (  -1.1954426  -1.0893904   3.0661390  )
       111        O      tau( 111) = (  -1.3083091  -1.6096701   3.0527411  )
       112        O      tau( 112) = (  -1.3456386  -1.4183294   2.7284694  )
       113        O      tau( 113) = (  -1.1190209  -1.1345976   2.9020188  )
       114        O      tau( 114) = (  -1.4194904  -1.3436917   2.8801324  )
       115        O      tau( 115) = (  -1.5437239  -1.3123272   3.2231010  )
       116        O      tau( 116) = (  -1.2459813  -1.4372177   3.0316061  )
       117        O      tau( 117) = (  -1.3230834  -1.4896748   3.1933829  )
       118        O      tau( 118) = (  -1.4709759  -1.2676463   3.0596154  )
       119        O      tau( 119) = (  -1.3320473  -1.2362370   2.7609929  )
       120        O      tau( 120) = (  -1.1882178  -1.2577588   3.0193381  )
       121        O      tau( 121) = (  -1.3618994  -1.2893993   3.2128257  )
       122        O      tau( 122) = (  -1.4288377  -1.4650238   3.0395547  )
       123        O      tau( 123) = (  -1.3008862  -1.1540770   2.9178491  )
       124        O      tau( 124) = (  -1.2327633  -1.3514201   2.8629829  )
       125        H      tau( 125) = (  -1.6701334  -1.3423322   3.6853037  )
       126        H      tau( 126) = (  -1.9316251  -2.1369105   3.6830160  )
       127        H      tau( 127) = (  -1.4346542  -1.2063971   3.6846803  )
       128        H      tau( 128) = (  -1.6803395  -2.0364784   3.5786938  )
       129        H      tau( 129) = (  -1.8588794  -1.9027556   3.7006999  )
       130        H      tau( 130) = (  -1.8061800  -1.4914967   3.7430366  )
       131        H      tau( 131) = (  -1.6116694  -1.7023720   3.6883484  )
       132        H      tau( 132) = (  -1.5445468  -1.5401407   3.6238637  )
       133        H      tau( 133) = (  -0.8793740  -0.6326425   2.5288701  )
       134        H      tau( 134) = (  -1.0945908  -0.5367165   2.5589500  )
       135        H      tau( 135) = (  -1.1245006  -0.6867053   2.6650645  )
       136        H      tau( 136) = (  -0.9525833  -0.8290506   2.5054864  )
       137        H      tau( 137) = (  -1.1086115  -1.3567887   2.5271947  )
       138        H      tau( 138) = (  -1.0825470  -1.0919210   2.5452404  )
       139        H      tau( 139) = (  -1.2286092  -1.0808891   2.5821612  )
       140        H      tau( 140) = (  -1.2579316  -1.2313093   2.6469409  )
       141        K      tau( 141) = (  -0.4596115  -0.9098328   2.7605142  )
       142        Al     tau( 142) = (  -0.4215656  -0.6098156   2.7829572  )
       143        Si     tau( 143) = (  -0.5639523  -0.8431700   2.9623901  )
       144        Si     tau( 144) = (  -0.9598655  -1.6558273   2.8050329  )
       145        Si     tau( 145) = (  -0.6969952  -0.8155446   2.7996002  )
       146        Si     tau( 146) = (  -0.8262600  -1.6785401   2.9568795  )
       147        Si     tau( 147) = (  -0.4513391  -0.7113637   2.6029176  )
       148        Si     tau( 148) = (  -0.8257259  -1.5153747   2.6954227  )
       149        O      tau( 149) = (  -1.0709617  -1.6306028   2.8098198  )
       150        O      tau( 150) = (  -0.6982485  -0.8896321   2.7145539  )
       151        O      tau( 151) = (  -0.7880967  -0.8152444   2.8659051  )
       152        O      tau( 152) = (  -0.7437574  -1.6813388   2.8829489  )
       153        O      tau( 153) = (  -0.4022825  -0.6312845   2.5314696  )
       154        O      tau( 154) = (  -0.9077172  -1.5748037   2.7512520  )
       155        O      tau( 155) = (  -0.8408341  -1.5290376   2.5835806  )
       156        O      tau( 156) = (  -0.4183072  -0.7070034   2.7097279  )
       157        O      tau( 157) = (  -0.5814030  -0.7391328   2.9975742  )
       158        O      tau( 158) = (  -0.6759174  -0.7149374   2.7575418  )
       159        O      tau( 159) = (  -0.5584447  -0.6852480   2.5881504  )
       160        O      tau( 160) = (  -0.7290796  -1.5453193   2.7411048  )
       161        O      tau( 161) = (  -0.6103346  -0.8473952   2.8617305  )
       162        O      tau( 162) = (  -0.9262112  -1.6483635   2.9119489  )
       163        Al     tau( 163) = (  -0.5659593  -1.1333335   2.7898315  )
       164        Si     tau( 164) = (  -0.6944592  -0.9980391   2.6874129  )
       165        Si     tau( 165) = (  -0.6117289  -1.2332296   2.6163601  )
       166        O      tau( 166) = (  -0.9459316  -1.0925051   2.8137607  )
       167        O      tau( 167) = (  -0.4395318  -0.8221322   2.5768399  )
       168        O      tau( 168) = (  -0.6010165  -1.3416226   2.5707949  )
       169        O      tau( 169) = (  -0.7818372  -1.0527619   2.7386501  )
       170        O      tau( 170) = (  -0.5571466  -1.1615986   2.5421400  )
       171        O      tau( 171) = (  -0.5684862  -1.2277571   2.7156003  )
       172        O      tau( 172) = (  -0.7164399  -1.0059643   2.5798790  )
       173        O      tau( 173) = (  -0.6013513  -1.0405619   2.7271558  )
       174        O      tau( 174) = (  -0.7185104  -1.2047644   2.6004017  )
       175        O      tau( 175) = (  -1.3492607  -1.9493166   3.6716442  )
       176        Al     tau( 176) = (  -1.1092492  -1.1030242   3.4535761  )
       177        Si     tau( 177) = (  -0.9590399  -1.2317998   3.5408768  )
       178        Si     tau( 178) = (  -1.3106119  -2.0458700   3.6302370  )
       179        O      tau( 179) = (  -1.7216947  -1.1305392   3.4082504  )
       180        O      tau( 180) = (  -1.2024414  -1.4241429   3.6705365  )
       181        O      tau( 181) = (  -0.8683242  -1.1747776   3.5081586  )
       182        O      tau( 182) = (  -1.3445146  -2.1332710   3.7003826  )
       183        O      tau( 183) = (  -1.3541489  -2.0594217   3.5290653  )
       184        O      tau( 184) = (  -0.9586501  -1.2127775   3.6545169  )
       185        O      tau( 185) = (  -1.0567179  -1.1987735   3.4958962  )
       186        O      tau( 186) = (  -1.1952249  -2.0470974   3.6380965  )
       187        K      tau( 187) = (  -1.2347926  -1.3341965   3.5027204  )
       188        K      tau( 188) = (  -0.8383464  -1.6957686   3.2295244  )
       189        K      tau( 189) = (  -1.3801115  -1.8450764   3.5430811  )
       190        Al     tau( 190) = (  -1.2293069  -1.6198635   3.4504424  )
       191        Si     tau( 191) = (  -1.1002764  -1.3827909   3.2851867  )
       192        Si     tau( 192) = (  -0.9542181  -1.6217399   3.4367884  )
       193        Si     tau( 193) = (  -0.9574117  -1.4097782   3.4363097  )
       194        Si     tau( 194) = (  -1.0882597  -1.5902449   3.2792085  )
       195        Si     tau( 195) = (  -1.1729411  -1.5274535   3.6339386  )
       196        Si     tau( 196) = (  -1.0970210  -1.7594591   3.5414891  )
       197        O      tau( 197) = (  -1.8469396  -1.6488016   3.4392765  )
       198        O      tau( 198) = (  -0.9412327  -1.3428663   3.5286701  )
       199        O      tau( 199) = (  -1.0784124  -1.8708529   3.5238664  )
       200        O      tau( 200) = (  -1.0933520  -1.6608107   3.1882787  )
       201        O      tau( 201) = (  -0.8708918  -1.4079727   3.3669935  )
       202        O      tau( 202) = (  -1.1735353  -1.6029933   3.3461313  )
       203        O      tau( 203) = (  -1.2075160  -1.6099492   3.7056650  )
       204        O      tau( 204) = (  -1.0102354  -1.7029932   3.4974436  )
       205        O      tau( 205) = (  -1.0866615  -1.7533290   3.6545225  )
       206        O      tau( 206) = (  -1.2081924  -1.5300495   3.5263601  )
       207        O      tau( 207) = (  -1.0817214  -1.4849833   3.2365601  )
       208        O      tau( 208) = (  -0.9701336  -1.5147356   3.4805779  )
       209        O      tau( 209) = (  -1.0599907  -1.5325290   3.6410021  )
       210        O      tau( 210) = (  -1.1953326  -1.7260966   3.5018353  )
       211        O      tau( 211) = (  -1.0540841  -1.3805351   3.3891582  )
       212        O      tau( 212) = (  -0.9883799  -1.6203117   3.3305848  )
       213        K      tau( 213) = (  -0.7183120  -1.1619271   3.2110891  )
       214        Al     tau( 214) = (  -0.8399816  -0.8429873   2.9739400  )
       215        Al     tau( 215) = (  -0.9560690  -1.9205468   3.2656270  )
       216        Si     tau( 216) = (  -0.8207254  -1.1011281   3.4351686  )
       217        Si     tau( 217) = (  -1.2292563  -1.9122597   3.2787243  )
       218        Si     tau( 218) = (  -0.9711916  -1.0742266   3.2776778  )
       219        Si     tau( 219) = (  -1.0877642  -1.9392753   3.4392765  )
       220        Si     tau( 220) = (  -0.7091782  -0.9762351   3.0706254  )
       221        Si     tau( 221) = (  -1.0906626  -1.7805524   3.1674276  )
       222        O      tau( 222) = (  -1.4602437  -0.8790751   2.9503893  )
       223        O      tau( 223) = (  -1.3354431  -1.8810946   3.2872851  )
       224        O      tau( 224) = (  -0.9720206  -1.1438775   3.1866311  )
       225        O      tau( 225) = (  -1.0619144  -1.0731378   3.3410104  )
       226        O      tau( 226) = (  -0.9892033  -1.9381904   3.3805250  )
       227        O      tau( 227) = (  -0.6191372  -0.9155220   3.0366380  )
       228        O      tau( 228) = (  -1.1842956  -1.8322263   3.2107829  )
       229        O      tau( 229) = (  -1.1000494  -1.7987972   3.0547560  )
       230        O      tau( 230) = (  -0.7188776  -0.9619026   3.1805917  )
       231        O      tau( 231) = (  -1.0982157  -2.0425524   3.4852480  )
       232        O      tau( 232) = (  -0.9544187  -0.9696227   3.2345785  )
       233        O      tau( 233) = (  -0.8060491  -0.9494823   3.0203568  )
       234        O      tau( 234) = (  -1.0029202  -1.8148216   3.2262014  )
       235        O      tau( 235) = (  -0.8801509  -1.1008650   3.3366242  )
       236        O      tau( 236) = (  -1.1743997  -1.9146312   3.3770628  )
       237        K      tau( 237) = (  -0.9699041  -1.0672015   3.0248209  )
       238        K      tau( 238) = (  -0.5607883  -1.4121261   2.7689248  )
       239        K      tau( 239) = (  -1.0804562  -1.5840894   3.0006913  )
       240        Al     tau( 240) = (  -0.8197937  -1.3958886   3.2556356  )
       241        Al     tau( 241) = (  -0.9773534  -1.3560605   2.9814043  )
       242        Si     tau( 242) = (  -0.8393172  -1.1242911   2.8030736  )
       243        Si     tau( 243) = (  -0.6975851  -1.3585180   2.9650730  )
       244        Si     tau( 244) = (  -0.7076062  -1.1594814   2.9618947  )
       245        Si     tau( 245) = (  -0.8348464  -1.3330295   2.8087010  )
       246        Si     tau( 246) = (  -0.9622233  -1.2586229   3.1699380  )
       247        Si     tau( 247) = (  -0.8301211  -1.4998204   3.0746998  )
       248        O      tau( 248) = (  -1.2060141  -1.3527341   3.2874020  )
       249        O      tau( 249) = (  -1.5873275  -1.3815559   2.9555047  )
       250        O      tau( 250) = (  -0.6841720  -1.0859615   3.0500748  )
       251        O      tau( 251) = (  -0.8126438  -1.6113254   3.0459336  )
       252        O      tau( 252) = (  -0.8534529  -1.4067867   2.7202425  )
       253        O      tau( 253) = (  -0.6255998  -1.1602693   2.8892721  )
       254        O      tau( 254) = (  -0.9263269  -1.3245774   2.8744159  )
       255        O      tau( 255) = (  -1.0447087  -1.3031914   3.2271810  )
       256        O      tau( 256) = (  -0.7381678  -1.4351708   3.0351518  )
       257        O      tau( 257) = (  -0.8218108  -1.4983188   3.1860132  )
       258        O      tau( 258) = (  -0.9626986  -1.2627426   3.0570326  )
       259        O      tau( 259) = (  -0.8201580  -1.2293610   2.7603528  )
       260        O      tau( 260) = (  -0.7120584  -1.2584149   3.0166163  )
       261        O      tau( 261) = (  -0.8642037  -1.2923080   3.2074321  )
       262        O      tau( 262) = (  -0.9209673  -1.4554490   3.0243422  )
       263        O      tau( 263) = (  -0.8012546  -1.1312710   2.9103793  )
       264        O      tau( 264) = (  -0.7401249  -1.3627127   2.8603946  )
       265        H      tau( 265) = (  -1.2450415  -1.4238123   3.7248740  )
       266        H      tau( 266) = (  -1.3982829  -2.1735188   3.6723066  )
       267        H      tau( 267) = (  -0.9972404  -1.1641150   3.6838064  )
       268        H      tau( 268) = (  -1.1630151  -2.0376969   3.5783654  )
       269        H      tau( 269) = (  -1.3138698  -1.9246815   3.7245400  )
       270        H      tau( 270) = (  -1.2655948  -1.6452739   3.6994976  )
       271        H      tau( 271) = (  -1.1145102  -1.6985926   3.6875135  )
       272        H      tau( 272) = (  -1.0248548  -1.5265940   3.5847944  )
       273        H      tau( 273) = (  -0.3518434  -0.6008084   2.5653233  )
       274        H      tau( 274) = (  -0.5506085  -0.5361113   2.5511350  )
       275        H      tau( 275) = (  -0.5956448  -0.6894919   2.6417588  )
       276        H      tau( 276) = (  -0.4147620  -0.8367169   2.5171811  )
       277        H      tau( 277) = (  -0.6258490  -1.3419498   2.5116649  )
       278        H      tau( 278) = (  -0.4956125  -1.1434140   2.5520980  )
       279        H      tau( 279) = (  -0.7036919  -1.0687213   2.5635477  )
       280        H      tau( 280) = (  -0.7633375  -1.2218763   2.6492509  )
       281        O      tau( 281) = (  -1.5214811  -2.2118438   4.3417844  )
       282        H      tau( 282) = (  -1.5361224  -2.2792847   4.3497052  )
       283        H      tau( 283) = (  -1.5619752  -2.1892121   4.2904471  )
       284        O      tau( 284) = (  -1.8690024  -1.9637846   4.1995952  )
       285        H      tau( 285) = (  -1.9381847  -1.9505275   4.2111395  )
       286        H      tau( 286) = (  -1.8483209  -2.0217187   4.2297919  )
       287        O      tau( 287) = (  -1.5044294  -1.8719586   4.3200761  )
       288        H      tau( 288) = (  -1.4477357  -1.8544775   4.3452800  )
       289        H      tau( 289) = (  -1.5129193  -1.9273601   4.3531284  )
       290        O      tau( 290) = (  -1.4257310  -1.5645643   4.2785410  )
       291        H      tau( 291) = (  -1.4444621  -1.5234293   4.2294246  )
       292        H      tau( 292) = (  -1.4771578  -1.5630829   4.3254531  )
       293        O      tau( 293) = (  -1.4002856  -1.9457079   4.1661978  )
       294        H      tau( 294) = (  -1.4372862  -1.9194996   4.2176130  )
       295        H      tau( 295) = (  -1.3834701  -1.8877904   4.1360289  )
       296        O      tau( 296) = (  -1.2338928  -1.6346393   4.2483442  )
       297        H      tau( 297) = (  -1.2309305  -1.5984927   4.1911067  )
       298        H      tau( 298) = (  -1.2957340  -1.6302720   4.2716388  )
       299        O      tau( 299) = (  -1.6600727  -1.7249852   4.3633702  )
       300        H      tau( 300) = (  -1.7107237  -1.7540344   4.3300063  )
       301        H      tau( 301) = (  -1.6070428  -1.7649981   4.3486921  )
       302        O      tau( 302) = (  -1.3576051  -1.7197989   3.7042623  )
       303        H      tau( 303) = (  -1.3409078  -1.7729748   3.7420236  )
       304        H      tau( 304) = (  -1.4076632  -1.6839602   3.7287759  )
       305        O      tau( 305) = (  -1.4842048  -1.6906836   3.8464515  )
       306        H      tau( 306) = (  -1.5529122  -1.6681028   3.8471250  )
       307        H      tau( 307) = (  -1.4884201  -1.7611572   3.8378072  )
       308        O      tau( 308) = (  -1.6675453  -1.6296366   3.8596490  )
       309        H      tau( 309) = (  -1.6889404  -1.5940540   3.8057067  )
       310        H      tau( 310) = (  -1.7238707  -1.6652284   3.8697629  )
       311        O      tau( 311) = (  -1.2064877  -1.5180809   4.0914211  )
       312        H      tau( 312) = (  -1.1399110  -1.5037392   4.0871073  )
       313        H      tau( 313) = (  -1.2231564  -1.5338403   4.0239418  )
       314        O      tau( 314) = (  -1.8510307  -1.4088624   3.8431953  )
       315        H      tau( 315) = (  -1.9069064  -1.3813156   3.8171565  )
       316        H      tau( 316) = (  -1.8098061  -1.3612791   3.8657051  )
       317        O      tau( 317) = (  -1.9869141  -2.3351384   4.1750759  )
       318        H      tau( 318) = (  -2.0176210  -2.2748474   4.1533677  )
       319        H      tau( 319) = (  -1.9480859  -2.3520505   4.1201262  )
       320        O      tau( 320) = (  -1.3803681  -2.2497218   4.2160768  )
       321        H      tau( 321) = (  -1.3438449  -2.1988139   4.1884405  )
       322        H      tau( 322) = (  -1.4324388  -2.2252930   4.2479378  )
       323        O      tau( 323) = (  -1.5201067  -1.4581270   3.8380910  )
       324        H      tau( 324) = (  -1.5382062  -1.4720060   3.9043291  )
       325        H      tau( 325) = (  -1.5621597  -1.4943332   3.7956430  )
       326        O      tau( 326) = (  -1.2494116  -1.5802126   3.9106357  )
       327        H      tau( 327) = (  -1.1926549  -1.6172615   3.9038894  )
       328        H      tau( 328) = (  -1.2562079  -1.5532268   3.8496020  )
       329        O      tau( 329) = (  -2.1485730  -2.4737412   4.1745360  )
       330        H      tau( 330) = (  -1.8435669  -1.4785432   4.1822898  )
       331        H      tau( 331) = (  -2.1201640  -2.4138847   4.1649176  )
       332        O      tau( 332) = (  -1.5440418  -2.0314873   4.4137223  )
       333        H      tau( 333) = (  -1.5359893  -2.1005247   4.4056736  )
       334        H      tau( 334) = (  -1.6086013  -2.0213594   4.3963947  )
       335        O      tau( 335) = (  -1.6870383  -1.9674362   3.9279856  )
       336        H      tau( 336) = (  -1.6450548  -2.0038393   3.9681292  )
       337        H      tau( 337) = (  -1.7393037  -2.0050055   3.9132073  )
       338        O      tau( 338) = (  -1.3192023  -1.8321091   3.9922198  )
       339        H      tau( 339) = (  -1.3446764  -1.7699825   4.0031686  )
       340        H      tau( 340) = (  -1.2635525  -1.8417849   4.0275487  )
       341        O      tau( 341) = (  -2.0596983  -1.9710102   4.1984541  )
       342        H      tau( 342) = (  -2.0496322  -1.9758998   4.1307632  )
       343        H      tau( 343) = (  -2.0901859  -1.9120845   4.2026566  )
       344        O      tau( 344) = (  -1.5080588  -2.2647741   4.0513610  )
       345        H      tau( 345) = (  -1.4514849  -2.2515899   4.0849699  )
       346        H      tau( 346) = (  -1.4831953  -2.2979150   3.9978250  )
       347        O      tau( 347) = (  -1.7592338  -1.8314850   4.2470862  )
       348        H      tau( 348) = (  -1.7983993  -1.8819238   4.2236190  )
       349        H      tau( 349) = (  -1.7061911  -1.8232354   4.1994171  )
       350        O      tau( 350) = (  -1.8591691  -2.2303620   3.9522543  )
       351        H      tau( 351) = (  -1.8598955  -2.2697804   3.8947608  )
       352        H      tau( 352) = (  -1.8501062  -2.1633735   3.9336965  )
       353        O      tau( 353) = (  -1.1089968  -1.3121484   3.9241393  )
       354        H      tau( 354) = (  -1.0872486  -1.3582848   3.9685690  )
       355        H      tau( 355) = (  -1.0712560  -1.3298219   3.8712379  )
       356        O      tau( 356) = (  -1.5682096  -1.9946529   4.0955624  )
       357        H      tau( 357) = (  -1.5027676  -2.0022486   4.1044238  )
       358        H      tau( 358) = (  -1.5954713  -2.0452281   4.1319488  )
       359        O      tau( 359) = (  -1.2327298  -2.0687445   3.9250522  )
       360        H      tau( 360) = (  -1.2887532  -2.0403541   3.9010172  )
       361        H      tau( 361) = (  -1.2448265  -2.1393046   3.9243175  )
       362        O      tau( 362) = (  -1.2170780  -1.2034436   3.6618142  )
       363        H      tau( 363) = (  -1.2700591  -1.1757446   3.6956291  )
       364        H      tau( 364) = (  -1.2108419  -1.2645258   3.6917605  )
       365        O      tau( 365) = (  -1.2829554  -2.1059445   4.1278243  )
       366        H      tau( 366) = (  -1.2609644  -2.0841998   4.0659111  )
       367        H      tau( 367) = (  -1.3207775  -2.0583047   4.1580767  )
       368        O      tau( 368) = (  -1.0881647  -1.6711471   3.9277796  )
       369        H      tau( 369) = (  -2.0662813  -1.7077567   3.9837481  )
       370        H      tau( 370) = (  -2.0383670  -1.6224479   3.9198589  )
       371        O      tau( 371) = (  -1.5741802  -1.5574104   4.3852232  )
       372        H      tau( 372) = (  -1.6150851  -1.5539825   4.3300174  )
       373        H      tau( 373) = (  -1.5930518  -1.6203394   4.4036530  )
       374        O      tau( 374) = (  -1.6565299  -1.5311269   4.2071875  )
       375        H      tau( 375) = (  -1.5977074  -1.4994353   4.1862084  )
       376        H      tau( 376) = (  -1.6649222  -1.5830357   4.1651124  )
       377        O      tau( 377) = (  -2.3302460  -2.4539530   4.2424384  )
       378        H      tau( 378) = (  -2.3539889  -2.3956039   4.2570776  )
       379        H      tau( 379) = (  -2.2639297  -2.4545368   4.2291184  )
       380        O      tau( 380) = (  -1.5888826  -2.1518814   3.9105577  )
       381        H      tau( 381) = (  -1.5313714  -2.1202483   3.8950669  )
       382        H      tau( 382) = (  -1.5670339  -2.1898883   3.9631363  )
       383        O      tau( 383) = (  -2.0439279  -2.0484897   3.9851507  )
       384        H      tau( 384) = (  -2.0494057  -2.1005273   4.0256562  )
       385        H      tau( 385) = (  -2.1031466  -2.0455188   3.9549762  )
       386        O      tau( 386) = (  -1.6434698  -2.1502770   4.1986934  )
       387        H      tau( 387) = (  -1.6958399  -2.1188457   4.2238584  )
       388        H      tau( 388) = (  -1.6592520  -2.1934641   4.1467272  )
       389        O      tau( 389) = (  -1.4376212  -2.0496254   3.8835170  )
       390        H      tau( 390) = (  -1.4170901  -2.0816685   3.8283724  )
       391        H      tau( 391) = (  -1.4699608  -1.9940689   3.8650594  )
       392        O      tau( 392) = (  -1.5530637  -1.8880508   3.8280496  )
       393        H      tau( 393) = (  -1.6098104  -1.9032977   3.8635510  )
       394        H      tau( 394) = (  -1.5815217  -1.8802644   3.7647950  )
       395        O      tau( 395) = (  -2.0745841  -1.8332000   3.8301536  )
       396        H      tau( 396) = (  -1.0681866  -1.8047470   3.7690977  )
       397        H      tau( 397) = (  -2.0733949  -1.7783776   3.8721786  )
       398        O      tau( 398) = (  -1.8054139  -1.8584808   4.0214537  )
       399        H      tau( 399) = (  -1.7564845  -1.8992240   4.0037698  )
       400        H      tau( 400) = (  -1.8161398  -1.8818380   4.0835282  )
       401        O      tau( 401) = (  -2.0872515  -2.1718059   4.1243008  )
       402        H      tau( 402) = (  -2.1184942  -2.1352570   4.1735786  )
       403        H      tau( 403) = (  -2.1414006  -2.1939679   4.0829827  )
       404        O      tau( 404) = (  -1.5696651  -2.3835223   4.3442892  )
       405        H      tau( 405) = (  -1.5259166  -2.4348134   4.3524437  )
       406        H      tau( 406) = (  -1.5750445  -2.3796072   4.2762644  )
       407        O      tau( 407) = (  -1.8197398  -1.7197573   3.8919109  )
       408        H      tau( 408) = (  -1.8163329  -1.7446109   3.9567185  )
       409        H      tau( 409) = (  -1.8327367  -1.7776596   3.8500807  )
       410        O      tau( 410) = (  -1.8605700  -1.6696425   4.1691535  )
       411        H      tau( 411) = (  -1.8445337  -1.7199978   4.2093305  )
       412        H      tau( 412) = (  -1.8115731  -1.6690476   4.1175490  )
       413        O      tau( 413) = (  -1.6094280  -1.2886324   3.7982536  )
       414        H      tau( 414) = (  -1.5936931  -1.3560100   3.8045712  )
       415        H      tau( 415) = (  -1.5662155  -1.2686460   3.7487364  )
       416        O      tau( 416) = (  -1.3913730  -1.6724175   3.9985431  )
       417        H      tau( 417) = (  -1.4352579  -1.6861066   3.9474785  )
       418        H      tau( 418) = (  -1.3415314  -1.6361981   3.9672275  )
       419        O      tau( 419) = (  -1.9025568  -1.8674648   3.8216985  )
       420        H      tau( 420) = (  -1.9733916  -1.8588111   3.8267025  )
       421        H      tau( 421) = (  -1.8893377  -1.9294359   3.8410300  )
       422        O      tau( 422) = (  -1.8068657  -2.0947754   4.3169312  )
       423        H      tau( 423) = (  -1.8135273  -2.1612480   4.3255422  )
       424        H      tau( 424) = (  -1.7750403  -2.0663469   4.3704227  )
       425        O      tau( 425) = (  -2.0583277  -2.2521758   3.8864449  )
       426        H      tau( 426) = (  -2.0563934  -2.2454668   3.8212254  )
       427        H      tau( 427) = (  -1.9926982  -2.2398787   3.9035777  )
       428        O      tau( 428) = (  -1.8654031  -2.0440148   3.8811013  )
       429        H      tau( 429) = (  -1.8757345  -2.0726444   3.8182252  )
       430        H      tau( 430) = (  -1.9264237  -2.0499154   3.9118992  )
       431        O      tau( 431) = (  -1.9907553  -1.7619032   4.0556359  )
       432        H      tau( 432) = (  -1.9509241  -1.8172464   4.0433623  )
       433        H      tau( 433) = (  -1.9468991  -1.7217221   4.0948165  )
       434        O      tau( 434) = (  -1.6969360  -2.2853181   4.0716777  )
       435        H      tau( 435) = (  -1.7471314  -2.3225076   4.0978947  )
       436        H      tau( 436) = (  -1.7227648  -2.2492748   4.0221828  )
       437        O      tau( 437) = (  -1.4618857  -1.7345409   4.1626299  )
       438        H      tau( 438) = (  -1.4304578  -1.7108438   4.1061438  )
       439        H      tau( 439) = (  -1.4513950  -1.6902380   4.2100374  )
       440        O      tau( 440) = (  -1.9343290  -1.5651407   3.9220687  )
       441        H      tau( 441) = (  -1.9032192  -1.5070826   3.9032883  )
       442        H      tau( 442) = (  -1.8906203  -1.6214144   3.9068451  )
       443        O      tau( 443) = (  -1.5332624  -1.5058090   4.0155201  )
       444        H      tau( 444) = (  -1.4917805  -1.5626800   4.0182253  )
       445        H      tau( 445) = (  -1.5315298  -1.4786179   4.0784741  )
       446        O      tau( 446) = (  -2.4467245  -2.5345588   4.3670384  )
       447        H      tau( 447) = (  -2.3978568  -2.5084505   4.3290489  )
       448        H      tau( 448) = (  -2.1970034  -1.5505258   4.3361792  )
       449        O      tau( 449) = (  -1.7547320  -2.4107843   4.3716806  )
       450        H      tau( 450) = (  -1.7644280  -2.4726590   4.3971628  )
       451        H      tau( 451) = (  -1.6829582  -2.4071427   4.3732002  )
       452        O      tau( 452) = (  -1.6188771  -1.8253930   4.1182559  )
       453        H      tau( 453) = (  -1.5918970  -1.8856231   4.1091217  )
       454        H      tau( 454) = (  -1.5674975  -1.7862713   4.1449961  )
       455        O      tau( 455) = (  -1.2549452  -1.8727897   3.8174849  )
       456        H      tau( 456) = (  -1.2773059  -1.8647962   3.8827322  )
       457        H      tau( 457) = (  -1.1863914  -1.8806706   3.8197949  )
       458        O      tau( 458) = (  -2.2053713  -2.2452141   3.9958936  )
       459        H      tau( 459) = (  -2.1614022  -2.2683569   3.9473338  )
       460        H      tau( 460) = (  -2.2513163  -2.2957364   4.0019329  )
       461        O      tau( 461) = (  -1.7071097  -1.6618766   4.0471752  )
       462        H      tau( 462) = (  -1.6782858  -1.6261661   3.9933943  )
       463        H      tau( 463) = (  -1.6657547  -1.7143915   4.0578902  )
       464        O      tau( 464) = (  -1.0066965  -1.3488674   3.7723539  )
       465        H      tau( 465) = (  -0.9989131  -1.3041528   3.7241337  )
       466        H      tau( 466) = (  -1.0483427  -1.3950229   3.7460090  )
       467        O      tau( 467) = (  -1.7836653  -1.1451624   3.6921557  )
       468        H      tau( 468) = (  -2.0816740  -2.1299287   3.6858993  )
       469        H      tau( 469) = (  -1.8290244  -1.1896687   3.6696181  )
       470        O      tau( 470) = (  -1.7579911  -2.4545322   4.1855961  )
       471        H      tau( 471) = (  -1.7626826  -2.4252347   4.2477041  )
       472        H      tau( 472) = (  -1.6918923  -2.4432961   4.1695876  )
       473        O      tau( 473) = (  -1.7251540  -1.9283287   4.4013041  )
       474        H      tau( 474) = (  -1.6833837  -1.8793324   4.4180139  )
       475        H      tau( 475) = (  -1.7697326  -1.8971723   4.3624796  )
       476        O      tau( 476) = (  -2.0362858  -1.4528619   4.0479044  )
       477        H      tau( 477) = (  -2.0099502  -1.4939147   3.9992890  )
       478        H      tau( 478) = (  -1.9839905  -1.4450818   4.0935140  )
       479        O      tau( 479) = (  -1.3370397  -1.4330803   3.8148966  )
       480        H      tau( 480) = (  -1.4008263  -1.4523440   3.8121636  )
       481        H      tau( 481) = (  -1.3470737  -1.3934430   3.8704197  )
       482        O      tau( 482) = (  -2.1313584  -1.7952414   4.1930270  )
       483        H      tau( 483) = (  -2.1562080  -1.7366233   4.2185315  )
       484        H      tau( 484) = (  -2.0845567  -1.7828771   4.1483302  )
       485        O      tau( 485) = (  -1.8579369  -2.2716933   4.2947387  )
       486        H      tau( 486) = (  -1.9022308  -2.2923604   4.2423661  )
       487        H      tau( 487) = (  -1.8185236  -2.3249382   4.3161352  )
       488        O      tau( 488) = (  -1.6309223  -2.1769010   3.7330508  )
       489        H      tau( 489) = (  -1.6345082  -2.1590377   3.7989048  )
       490        H      tau( 490) = (  -1.6535277  -2.1250215   3.6968258  )
       491        O      tau( 491) = (  -1.5751961  -2.4159343   4.1522489  )
       492        H      tau( 492) = (  -1.2693595  -1.4181736   4.1235828  )
       493        H      tau( 493) = (  -1.5740574  -2.3611700   4.1129958  )

     number of k points=     1
                       cart. coord. in units 2pi/alat
        k(    1) = (   0.0000000   0.0000000   0.0000000), wk =   2.0000000

     Dense  grid:  3184389 G-vectors     FFT dimensions: ( 192, 200, 480)

     Estimated max dynamical RAM per process >     493.86 MB

     Estimated total dynamical RAM >      57.87 GB

     WARNING: libxc functional with ID  263 depends
      on external parameters: check the user_guide of
      QE if you need to modify them or to check their
      default values.

     Initial potential from superposition of free atoms

     starting charge    2103.6163, renormalised to    2104.0000
     Starting wfcs are 1530 randomized atomic wfcs

     total cpu time spent up to now is       36.5 secs

     Self-consistent Calculation

     iteration #  1     ecut=   110.00 Ry     beta= 0.50
     Davidson diagonalization with overlap
     ethr =  1.00E-02,  avg # of iterations =  2.0

     total cpu time spent up to now is      119.1 secs

     total energy              =  -11162.06566225 Ry
     estimated scf accuracy    <    4094.39710526 Ry

     iteration #  2     ecut=   110.00 Ry     beta= 0.50
     Davidson diagonalization with overlap
     ethr =  1.00E-02,  avg # of iterations =  2.0

     total cpu time spent up to now is      189.9 secs

     total energy              =  -11181.73236213 Ry
     estimated scf accuracy    <     541.91938547 Ry

     iteration #  3     ecut=   110.00 Ry     beta= 0.50
     Davidson diagonalization with overlap
     ethr =  1.00E-02,  avg # of iterations =  1.0

     total cpu time spent up to now is      248.1 secs

     total energy              =  -11183.35910967 Ry
     estimated scf accuracy    <      50.36446050 Ry

     iteration #  4     ecut=   110.00 Ry     beta= 0.50
     Davidson diagonalization with overlap
     ethr =  2.39E-03,  avg # of iterations =  1.0

     total cpu time spent up to now is      307.1 secs

     total energy              =  -11183.50210738 Ry
     estimated scf accuracy    <       0.85558360 Ry

     iteration #  5     ecut=   110.00 Ry     beta= 0.50
     Davidson diagonalization with overlap
     ethr =  4.07E-05,  avg # of iterations =  2.0

     total cpu time spent up to now is      367.9 secs

     total energy              =  -11183.53935974 Ry
     estimated scf accuracy    <       0.03512437 Ry

     iteration #  6     ecut=   110.00 Ry     beta= 0.50
     Davidson diagonalization with overlap
     ethr =  1.67E-06,  avg # of iterations =  4.0

     total cpu time spent up to now is      446.3 secs

     total energy              =  -11183.54579985 Ry
     estimated scf accuracy    <       0.00535992 Ry

     iteration #  7     ecut=   110.00 Ry     beta= 0.50
     Davidson diagonalization with overlap
     ethr =  2.55E-07,  avg # of iterations =  4.0

     total cpu time spent up to now is      521.0 secs

     total energy              =  -11183.54646807 Ry
     estimated scf accuracy    <       0.00251316 Ry

     iteration #  8     ecut=   110.00 Ry     beta= 0.50
     Davidson diagonalization with overlap
     ethr =  1.19E-07,  avg # of iterations =  2.0

     total cpu time spent up to now is      589.4 secs

     total energy              =  -11183.54667741 Ry
     estimated scf accuracy    <       0.00058787 Ry

     iteration #  9     ecut=   110.00 Ry     beta= 0.50
     Davidson diagonalization with overlap
     ethr =  2.79E-08,  avg # of iterations =  2.0

     total cpu time spent up to now is      654.2 secs

     total energy              =  -11183.54671979 Ry
     estimated scf accuracy    <       0.00005102 Ry

     iteration # 10     ecut=   110.00 Ry     beta= 0.50
     Davidson diagonalization with overlap
     ethr =  2.43E-09,  avg # of iterations =  4.0

     total cpu time spent up to now is      722.9 secs

     total energy              =  -11183.54672617 Ry
     estimated scf accuracy    <       0.00000837 Ry

     iteration # 11     ecut=   110.00 Ry     beta= 0.50
     Davidson diagonalization with overlap
     ethr =  3.98E-10,  avg # of iterations =  4.0

     total cpu time spent up to now is      799.9 secs

     total energy              =  -11183.54672755 Ry
     estimated scf accuracy    <       0.00000214 Ry

     iteration # 12     ecut=   110.00 Ry     beta= 0.50
     Davidson diagonalization with overlap
     ethr =  1.02E-10,  avg # of iterations =  2.0

     total cpu time spent up to now is      862.4 secs

     End of self-consistent calculation

          k = 0.0000 0.0000 0.0000 (398025 PWs)   bands (ev):

  -104.2538-103.9976-103.9901-103.9655-103.9061-103.7168-103.6230-103.4772
  -103.4676-103.4617-103.4029-103.3164-103.3146-103.0597-102.9681-102.9339
   -63.8001 -63.7858 -63.7254 -63.5921 -63.5771 -63.5512 -63.5456 -63.5412
   -63.5376 -63.5148 -63.4919 -63.4765 -63.4547 -63.4487 -63.4453 -63.2582
   -63.2473 -63.2030 -63.1944 -63.1554 -63.1157 -63.0924 -63.0717 -63.0683
   -63.0682 -63.0539 -63.0340 -63.0306 -63.0185 -63.0075 -62.9888 -62.9733
   -62.9308 -62.8848 -62.8834 -62.8745 -62.8484 -62.8375 -62.8161 -62.6102
   -62.6097 -62.5528 -62.5505 -62.5238 -62.5132 -62.5055 -62.5031 -62.4363
   -29.4750 -29.2625 -28.9951 -28.9423 -28.9240 -28.9230 -28.8598 -28.8518
   -28.7876 -28.7816 -28.6758 -28.6741 -28.6582 -28.5272 -28.5128 -28.3997
   -22.6935 -21.6699 -21.6554 -21.5094 -21.4832 -21.4185 -21.3715 -21.2975
   -21.2428 -21.2293 -21.1876 -21.1819 -21.1329 -21.0893 -20.9928 -20.9787
   -20.9325 -20.9313 -20.9213 -20.9024 -20.8914 -20.8541 -20.8149 -20.7946
   -20.7721 -20.7516 -20.7333 -20.7283 -20.7103 -20.7083 -20.6921 -20.6814
   -20.6684 -20.6582 -20.6435 -20.6108 -20.6009 -20.5940 -20.5763 -20.5744
   -20.5603 -20.5439 -20.5105 -20.5018 -20.4905 -20.4783 -20.4688 -20.4587
   -20.4372 -20.4228 -20.3845 -20.3627 -20.3392 -20.3201 -20.2849 -20.2612
   -20.2513 -20.2354 -20.2202 -20.2117 -20.1950 -20.1681 -20.1626 -20.1574
   -20.1328 -20.1104 -20.1050 -20.0999 -20.0785 -20.0698 -20.0449 -20.0286
   -20.0114 -19.9811 -19.9695 -19.9671 -19.9585 -19.9410 -19.9290 -19.9241
   -19.9183 -19.9050 -19.8880 -19.8770 -19.8689 -19.8519 -19.8441 -19.8376
   -19.8319 -19.8253 -19.8184 -19.8134 -19.7916 -19.7640 -19.7451 -19.7417
   -19.7392 -19.7210 -19.7158 -19.7052 -19.7031 -19.7005 -19.6945 -19.6773
   -19.6675 -19.6609 -19.6526 -19.6353 -19.6268 -19.6105 -19.6063 -19.5904
   -19.5865 -19.5811 -19.5732 -19.5690 -19.5519 -19.5470 -19.5434 -19.5362
   -19.5286 -19.5057 -19.4828 -19.4666 -19.4572 -19.4476 -19.4300 -19.4044
   -19.3884 -19.3878 -19.3643 -19.3621 -19.3594 -19.3496 -19.3462 -19.3311
   -19.3184 -19.2982 -19.2949 -19.2868 -19.2754 -19.2631 -19.2451 -19.2392
   -19.2256 -19.2145 -19.1971 -19.1758 -19.1717 -19.1655 -19.1590 -19.1538
   -19.1456 -19.1358 -19.1201 -19.1096 -19.1008 -19.0959 -19.0908 -19.0770
   -19.0630 -19.0501 -19.0493 -19.0297 -18.9897 -18.9781 -18.9688 -18.9675
   -18.9400 -18.9293 -18.9289 -18.9264 -18.9239 -18.8924 -18.8812 -18.8720
   -18.8523 -18.8506 -18.8280 -18.8136 -18.8019 -18.7987 -18.7916 -18.7739
   -18.7710 -18.7622 -18.7578 -18.7175 -18.7091 -18.6996 -18.6915 -18.6803
   -18.6700 -18.6211 -18.6053 -18.5863 -18.5677 -18.5570 -18.5504 -18.5423
   -18.5391 -18.4999 -18.4960 -18.4746 -18.4197 -18.4031 -18.3749 -18.3713
   -18.3503 -18.3435 -18.3342 -18.3175 -18.2300 -18.1724 -18.1543 -18.1292
   -18.1149 -18.1033 -18.0867 -18.0793 -18.0626 -18.0444 -17.9617 -17.9582
   -17.8864 -17.8575 -17.8391 -17.8380 -17.7895 -17.5869 -17.3143 -12.0500
   -12.0223 -11.9691 -11.8925 -11.8011 -11.7982 -11.5865 -11.5592 -11.5553
   -11.5316 -11.5298 -11.4913 -11.4826 -11.4791 -11.4782 -11.4725 -11.4649
   -11.4552 -11.4336 -11.4324 -11.4214 -11.4107 -11.4052 -11.4012 -11.3866
   -11.3704 -11.3527 -11.3222 -11.3030 -11.2803 -11.2695 -11.2598 -11.2417
   -11.2312 -11.2249 -11.1886 -11.1843 -11.1807 -11.1705 -11.1026 -11.1002
   -11.0652 -11.0560 -11.0169 -11.0112 -11.0100 -10.9248 -10.9074  -9.9392
    -9.8340  -9.4363  -9.3690  -9.3407  -9.2119  -9.2050  -9.1758  -9.1283
    -9.1139  -8.9467  -8.9164  -8.8798  -8.7781  -8.7710  -8.7131  -8.6163
    -8.5810  -8.5453  -8.5019  -8.4764  -8.4284  -8.4062  -8.3389  -8.3338
    -8.2915  -8.1555  -8.1284  -8.1055  -8.0822  -8.0278  -7.9962  -7.9427
    -7.8606  -7.8541  -7.8334  -7.8127  -7.7956  -7.7500  -7.7136  -7.7110
    -7.6218  -7.6174  -7.6084  -7.5765  -7.5575  -7.4982  -7.4806  -7.4622
    -7.4521  -7.4176  -7.3751  -7.3452  -7.3366  -7.3157  -7.3054  -7.2864
    -7.2566  -7.2174  -7.2113  -7.1782  -7.1729  -7.1595  -7.1351  -7.1141
    -7.0937  -7.0723  -7.0667  -7.0568  -7.0370  -7.0247  -7.0102  -6.9948
    -6.9884  -6.9709  -6.9563  -6.9417  -6.9214  -6.9183  -6.9042  -6.8893
    -6.8445  -6.8363  -6.8073  -6.7848  -6.7678  -6.7639  -6.7387  -6.7191
    -6.7141  -6.7025  -6.6843  -6.6674  -6.6666  -6.6524  -6.6446  -6.6228
    -6.6116  -6.5887  -6.5759  -6.5647  -6.5549  -6.5122  -6.4988  -6.4917
    -6.4763  -6.4643  -6.4585  -6.4527  -6.4436  -6.4293  -6.4272  -6.4075
    -6.3960  -6.3790  -6.3730  -6.3613  -6.3355  -6.3337  -6.3244  -6.3151
    -6.3142  -6.3050  -6.2734  -6.2563  -6.2401  -6.2330  -6.2329  -6.2261
    -6.2024  -6.1841  -6.1560  -6.1316  -6.1182  -6.1036  -6.0950  -6.0719
    -6.0697  -6.0661  -6.0483  -6.0433  -6.0377  -6.0236  -6.0065  -5.9995
    -5.9745  -5.9582  -5.9489  -5.9479  -5.9364  -5.9124  -5.9009  -5.8975
    -5.8758  -5.8647  -5.8165  -5.8070  -5.7929  -5.7680  -5.7441  -5.7230
    -5.6961  -5.6856  -5.6440  -5.6300  -5.6148  -5.6083  -5.5979  -5.5820
    -5.5572  -5.5449  -5.5414  -5.5316  -5.5066  -5.4739  -5.4680  -5.4454
    -5.4327  -5.4292  -5.3949  -5.3927  -5.3137  -5.2835  -5.2693  -5.2614
    -5.2504  -5.2435  -5.2230  -5.2102  -5.1506  -5.1430  -5.1234  -5.0879
    -5.0716  -5.0155  -5.0067  -4.9815  -4.9609  -4.9522  -4.9475  -4.9251
    -4.9025  -4.8755  -4.8641  -4.8473  -4.8312  -4.8119  -4.7962  -4.7832
    -4.7775  -4.7643  -4.7462  -4.7385  -4.7261  -4.7108  -4.6937  -4.6848
    -4.6435  -4.6325  -4.6081  -4.6013  -4.5972  -4.5557  -4.5407  -4.5295
    -4.5185  -4.5008  -4.4811  -4.4707  -4.4555  -4.4439  -4.4390  -4.4202
    -4.4180  -4.3976  -4.3936  -4.3735  -4.3641  -4.3560  -4.3442  -4.3354
    -4.3054  -4.2926  -4.2887  -4.2669  -4.2485  -4.2385  -4.2242  -4.2105
    -4.2078  -4.1734  -4.1547  -4.1500  -4.1292  -4.1178  -4.0957  -4.0683
    -4.0517  -4.0462  -4.0361  -4.0232  -4.0158  -3.9860  -3.9810  -3.9715
    -3.9548  -3.9160  -3.9122  -3.8867  -3.8831  -3.8690  -3.8582  -3.8399
    -3.8234  -3.8076  -3.7798  -3.7744  -3.7627  -3.7589  -3.7397  -3.7114
    -3.6971  -3.6888  -3.6826  -3.6596  -3.6438  -3.6420  -3.6311  -3.6152
    -3.6108  -3.5961  -3.5670  -3.5609  -3.5592  -3.5567  -3.5379  -3.5328
    -3.5118  -3.5018  -3.4978  -3.4889  -3.4784  -3.4641  -3.4581  -3.4353
    -3.4221  -3.4111  -3.4074  -3.3883  -3.3809  -3.3730  -3.3700  -3.3546
    -3.3501  -3.3469  -3.3357  -3.3309  -3.3285  -3.3152  -3.3029  -3.2997
    -3.2814  -3.2591  -3.2546  -3.2476  -3.2311  -3.2275  -3.2102  -3.1978
    -3.1947  -3.1791  -3.1739  -3.1651  -3.1584  -3.1466  -3.1322  -3.1260
    -3.1184  -3.1033  -3.0892  -3.0768  -3.0676  -3.0623  -3.0578  -3.0380
    -3.0291  -3.0261  -3.0149  -3.0103  -2.9947  -2.9869  -2.9726  -2.9668
    -2.9595  -2.9545  -2.9375  -2.9242  -2.9196  -2.9064  -2.8912  -2.8842
    -2.8743  -2.8710  -2.8600  -2.8542  -2.8480  -2.8428  -2.8359  -2.8237
    -2.8145  -2.8123  -2.8053  -2.7923  -2.7754  -2.7733  -2.7660  -2.7544
    -2.7524  -2.7403  -2.7380  -2.7255  -2.7133  -2.7079  -2.7052  -2.6969
    -2.6764  -2.6699  -2.6602  -2.6425  -2.6367  -2.6311  -2.6186  -2.6085
    -2.6044  -2.5994  -2.5886  -2.5775  -2.5714  -2.5638  -2.5543  -2.5476
    -2.5398  -2.5357  -2.5278  -2.5077  -2.5047  -2.4943  -2.4876  -2.4807
    -2.4668  -2.4599  -2.4548  -2.4388  -2.4266  -2.4263  -2.4145  -2.4124
    -2.4081  -2.3968  -2.3860  -2.3826  -2.3651  -2.3583  -2.3461  -2.3412
    -2.3364  -2.3254  -2.3144  -2.3127  -2.3049  -2.2905  -2.2805  -2.2741
    -2.2682  -2.2562  -2.2435  -2.2350  -2.2264  -2.2202  -2.2058  -2.2044
    -2.1975  -2.1908  -2.1831  -2.1723  -2.1617  -2.1583  -2.1540  -2.1409
    -2.1348  -2.1219  -2.1194  -2.1064  -2.0978  -2.0944  -2.0778  -2.0760
    -2.0661  -2.0621  -2.0532  -2.0415  -2.0374  -2.0357  -2.0251  -2.0187
    -2.0071  -1.9947  -1.9903  -1.9865  -1.9739  -1.9696  -1.9646  -1.9492
    -1.9442  -1.9387  -1.9319  -1.9191  -1.9187  -1.8923  -1.8895  -1.8809
    -1.8796  -1.8741  -1.8678  -1.8617  -1.8598  -1.8449  -1.8315  -1.8279
    -1.8221  -1.8076  -1.7941  -1.7916  -1.7818  -1.7697  -1.7639  -1.7606
    -1.7539  -1.7422  -1.7347  -1.7262  -1.7140  -1.7059  -1.6994  -1.6986
    -1.6916  -1.6764  -1.6699  -1.6567  -1.6509  -1.6395  -1.6328  -1.6252
    -1.6170  -1.6077  -1.6012  -1.5925  -1.5882  -1.5837  -1.5721  -1.5655
    -1.5605  -1.5480  -1.5333  -1.5244  -1.5192  -1.5102  -1.5093  -1.4962
    -1.4871  -1.4778  -1.4730  -1.4647  -1.4613  -1.4577  -1.4485  -1.4482
    -1.4344  -1.4271  -1.4217  -1.4149  -1.4106  -1.3948  -1.3941  -1.3858
    -1.3793  -1.3722  -1.3657  -1.3592  -1.3537  -1.3442  -1.3368  -1.3359
    -1.3335  -1.3257  -1.3160  -1.3102  -1.3059  -1.2993  -1.2844  -1.2803
    -1.2638  -1.2591  -1.2544  -1.2455  -1.2425  -1.2371  -1.2330  -1.2172
    -1.2093  -1.2051  -1.2042  -1.1946  -1.1850  -1.1807  -1.1644  -1.1533
    -1.1474  -1.1393  -1.1387  -1.1307  -1.1261  -1.1179  -1.1172  -1.1077
    -1.1022  -1.0900  -1.0734  -1.0670  -1.0575  -1.0508  -1.0334  -1.0276
    -1.0230  -1.0113  -1.0054  -0.9993  -0.9936  -0.9854  -0.9776  -0.9728
    -0.9698  -0.9576  -0.9536  -0.9461  -0.9385  -0.9238  -0.9190  -0.9093
    -0.8869  -0.8826  -0.8566  -0.8508  -0.8320  -0.8249  -0.8180  -0.8159
    -0.8013  -0.7983  -0.7881  -0.7865  -0.7844  -0.7757  -0.7639  -0.7575
    -0.7530  -0.7385  -0.7279  -0.7220  -0.7150  -0.7105  -0.7006  -0.6963
    -0.6821  -0.6715  -0.6414  -0.6160  -0.6080  -0.6002  -0.5813  -0.5787
    -0.5689  -0.5404  -0.5319  -0.5207  -0.5138  -0.5021  -0.4964  -0.4812
    -0.4707  -0.4423  -0.4407  -0.4348  -0.4309  -0.4249  -0.4093  -0.3991
    -0.3727  -0.3636  -0.3478  -0.3392  -0.3126  -0.2992  -0.2698  -0.2627
    -0.2515  -0.2378  -0.2235  -0.2155  -0.1943  -0.1698  -0.1581  -0.1369
    -0.1291  -0.1078  -0.0964  -0.0588  -0.0516  -0.0033   0.0249   0.0633
     0.1246   0.1377   0.1705   0.2036   0.2307   0.2320   0.3003   0.4357
     0.7424   0.7617   0.9092   1.5399

     highest occupied level (ev):     1.5399

!    total energy              =  -11183.54672766 Ry
     estimated scf accuracy    <       0.00000043 Ry

     The total energy is the sum of the following terms:
     one-electron contribution =  -20023.31852831 Ry
     hartree contribution      =   10656.03972211 Ry
     xc contribution           =   -2314.75923891 Ry
     ewald contribution        =     498.49131745 Ry

     convergence has been achieved in  12 iterations

     Forces acting on atoms (cartesian axes, Ry/au):

     atom    1 type  1   force =    -0.01049767    0.01578625   -0.00507095
     atom    2 type  2   force =     0.02704236    0.01826798   -0.00542988
     atom    3 type  3   force =    -0.01958567    0.01206575   -0.00672000
     atom    4 type  3   force =    -0.05835440    0.01356743   -0.01682115
     atom    5 type  3   force =    -0.03689650    0.02206825   -0.01462612
     atom    6 type  3   force =     0.02957713   -0.01187879   -0.08331442
     atom    7 type  3   force =    -0.05398251    0.02101437   -0.12846852
     atom    8 type  3   force =     0.05234512   -0.01832751   -0.04067739
     atom    9 type  4   force =     0.05218612   -0.01888202    0.01949457
     atom   10 type  4   force =    -0.01469490    0.00724521    0.03078237
     atom   11 type  4   force =     0.01834063   -0.00665461   -0.02035440
     atom   12 type  4   force =    -0.07312138   -0.00879801    0.03930139
     atom   13 type  4   force =     0.00742228   -0.00564316    0.04744684
     atom   14 type  4   force =     0.00622218    0.01915728   -0.02272018
     atom   15 type  4   force =    -0.01785106   -0.07253872    0.02861631
     atom   16 type  4   force =     0.04556593   -0.02023609    0.06152331
     atom   17 type  4   force =     0.01631582   -0.00101050    0.00758225
     atom   18 type  4   force =     0.00161915    0.02152180    0.00965117
     atom   19 type  4   force =     0.01115315    0.01606639   -0.03409388
     atom   20 type  4   force =    -0.01452878    0.01385891    0.01033546
     atom   21 type  4   force =     0.03213587   -0.01752887    0.00382302
     atom   22 type  4   force =     0.01731836   -0.00653151    0.01454454
     atom   23 type  2   force =    -0.00663105   -0.01051546   -0.01997481
     atom   24 type  3   force =     0.03775778    0.05371995   -0.02700370
     atom   25 type  3   force =    -0.02316919   -0.03166029   -0.13249348
     atom   26 type  4   force =    -0.06895917    0.00812663   -0.00986551
     atom   27 type  4   force =     0.01457951   -0.01614771    0.01669162
     atom   28 type  4   force =     0.00467985   -0.02848122    0.01671554
     atom   29 type  4   force =    -0.02393464    0.00092635    0.02633715
     atom   30 type  4   force =    -0.01314834    0.03864631    0.00677957
     atom   31 type  4   force =     0.03040868    0.01144046    0.09995681
     atom   32 type  4   force =     0.01005607   -0.01478062    0.00403054
     atom   33 type  4   force =    -0.01087500   -0.00822716    0.00154899
     atom   34 type  4   force =    -0.03359968    0.01823172    0.04642413
     atom   35 type  4   force =     0.00099499    0.02795440   -0.03608258
     atom   36 type  2   force =    -0.02182630    0.02291875   -0.01284165
     atom   37 type  3   force =     0.04642993   -0.02526812   -0.02463427
     atom   38 type  3   force =     0.05337608    0.02017890   -0.00835815
     atom   39 type  4   force =     0.03927323   -0.00731615    0.00501713
     atom   40 type  4   force =    -0.01024218   -0.04746836   -0.04549604
     atom   41 type  4   force =    -0.00424548   -0.01489105   -0.02546397
     atom   42 type  4   force =    -0.05174510   -0.07267296    0.01054272
     atom   43 type  4   force =     0.00483145    0.00776793    0.03101692
     atom   44 type  4   force =     0.01567664   -0.00025777    0.03905159
     atom   45 type  4   force =    -0.01319111   -0.01065225    0.02126408
     atom   46 type  4   force =    -0.08340548   -0.01984204    0.07505208
     atom   47 type  1   force =    -0.00329451    0.01157922    0.01962866
     atom   48 type  1   force =    -0.00819591   -0.00259217   -0.01592985
     atom   49 type  1   force =    -0.00839587   -0.01102954    0.00685148
     atom   50 type  2   force =     0.01987341   -0.00168947    0.00823834
     atom   51 type  3   force =     0.04282377    0.00667364    0.00865430
     atom   52 type  3   force =    -0.08130073    0.00056812   -0.02401614
     atom   53 type  3   force =    -0.03946192    0.07094383    0.07000993
     atom   54 type  3   force =     0.03808303    0.03019241   -0.05874286
     atom   55 type  3   force =     0.04367005    0.11310260    0.01040999
     atom   56 type  3   force =    -0.00698968    0.05795754   -0.05381763
     atom   57 type  4   force =     0.04834878   -0.00352892    0.00741734
     atom   58 type  4   force =    -0.00189868   -0.05203861   -0.02039565
     atom   59 type  4   force =     0.01004923   -0.01198894    0.00559267
     atom   60 type  4   force =     0.02226212   -0.00914265    0.04169956
     atom   61 type  4   force =     0.08061593   -0.01106290   -0.06318273
     atom   62 type  4   force =    -0.00181397    0.02606581   -0.00623694
     atom   63 type  4   force =    -0.02616493   -0.05146744    0.02949992
     atom   64 type  4   force =    -0.01633684   -0.03401057    0.01973517
     atom   65 type  4   force =     0.01052319   -0.02429510    0.04962838
     atom   66 type  4   force =    -0.02691635   -0.01904704   -0.07171247
     atom   67 type  4   force =    -0.01985225   -0.04180468    0.01745259
     atom   68 type  4   force =     0.01495382   -0.00458038   -0.01346632
     atom   69 type  4   force =     0.02915753   -0.02381156    0.01738486
     atom   70 type  4   force =     0.00763437   -0.00516113    0.02527786
     atom   71 type  4   force =    -0.02153553    0.00952251   -0.01915003
     atom   72 type  4   force =    -0.00598345   -0.00568718   -0.00140054
     atom   73 type  1   force =     0.00743425    0.00775139    0.00340743
     atom   74 type  2   force =    -0.01473424    0.01388124   -0.00261643
     atom   75 type  2   force =    -0.12277970    0.00027486   -0.02792458
     atom   76 type  3   force =     0.03125732    0.02849974   -0.00343271
     atom   77 type  3   force =     0.00335920    0.14242830   -0.03036370
     atom   78 type  3   force =    -0.06098213   -0.02771103    0.00704596
     atom   79 type  3   force =     0.00285717    0.03815402   -0.08300135
     atom   80 type  3   force =    -0.03488409   -0.05552576   -0.08535164
     atom   81 type  3   force =     0.00179575   -0.00601336    0.02473127
     atom   82 type  4   force =     0.02258617   -0.02225296   -0.00108572
     atom   83 type  4   force =     0.01460319   -0.04795636    0.01280797
     atom   84 type  4   force =    -0.00388012    0.01293669   -0.02579063
     atom   85 type  4   force =     0.06051863    0.00578513   -0.05261979
     atom   86 type  4   force =     0.02329014    0.00249619   -0.00549978
     atom   87 type  4   force =     0.09325440    0.03236774   -0.02902334
     atom   88 type  4   force =    -0.00642451   -0.03209066    0.03300266
     atom   89 type  4   force =     0.02185707    0.00130216   -0.01148858
     atom   90 type  4   force =     0.01529825    0.04625442    0.15005979
     atom   91 type  4   force =     0.00197141   -0.05682718    0.03027778
     atom   92 type  4   force =    -0.00448019   -0.03408762   -0.03776355
     atom   93 type  4   force =    -0.03890744    0.00322707   -0.00115307
     atom   94 type  4   force =     0.00373548   -0.03524978    0.01063361
     atom   95 type  4   force =    -0.00694583   -0.02276388    0.02185345
     atom   96 type  4   force =    -0.00966569    0.00942837    0.04037643
     atom   97 type  1   force =     0.00042927    0.02748245    0.00829607
     atom   98 type  1   force =     0.00341325   -0.01298526    0.01258203
     atom   99 type  1   force =    -0.00280619   -0.00120708   -0.00724779
     atom  100 type  2   force =    -0.01543820    0.04517866    0.02491904
     atom  101 type  2   force =     0.10088217   -0.03001781   -0.04495123
     atom  102 type  3   force =     0.08279213   -0.00219255    0.03451824
     atom  103 type  3   force =    -0.06718751   -0.04965111   -0.03418729
     atom  104 type  3   force =     0.04288329    0.02868633   -0.01147219
     atom  105 type  3   force =    -0.04543648    0.01209105   -0.00443102
     atom  106 type  3   force =    -0.00477306   -0.07041506    0.05745267
     atom  107 type  3   force =     0.00070404    0.02763122    0.03786042
     atom  108 type  4   force =    -0.03968096   -0.03541655    0.00703973
     atom  109 type  4   force =     0.02089571   -0.02006390    0.01008830
     atom  110 type  4   force =    -0.01051077    0.00297628   -0.04357715
     atom  111 type  4   force =     0.00218944    0.03269422    0.04093981
     atom  112 type  4   force =    -0.00089744    0.05377756    0.03031839
     atom  113 type  4   force =     0.00550488    0.00157244    0.01991153
     atom  114 type  4   force =     0.00238519   -0.01364284    0.03051744
     atom  115 type  4   force =     0.01442404    0.00925742   -0.02052357
     atom  116 type  4   force =     0.02316902    0.02399389   -0.01434868
     atom  117 type  4   force =     0.00710368   -0.03431167   -0.08288365
     atom  118 type  4   force =     0.01851877    0.02961341    0.02302908
     atom  119 type  4   force =     0.01060785   -0.05853842   -0.02099676
     atom  120 type  4   force =    -0.01938638   -0.01021123    0.02063163
     atom  121 type  4   force =    -0.00486891   -0.02282260   -0.00907823
     atom  122 type  4   force =    -0.00405993    0.00744537   -0.00232284
     atom  123 type  4   force =    -0.03152385    0.02855658   -0.00470378
     atom  124 type  4   force =     0.01668387   -0.00334859    0.03565179
     atom  125 type  5   force =     0.00482955    0.00627155    0.03424153
     atom  126 type  5   force =     0.03686414    0.02850960    0.01823556
     atom  127 type  5   force =    -0.03781681    0.00339050    0.00757834
     atom  128 type  5   force =     0.04521396    0.00863078   -0.06211074
     atom  129 type  5   force =    -0.01473264    0.01061016    0.02627274
     atom  130 type  5   force =    -0.01619968    0.02322176    0.02041314
     atom  131 type  5   force =     0.00076583    0.01539230    0.00164253
     atom  132 type  5   force =     0.00114914    0.00475840   -0.00773143
     atom  133 type  5   force =     0.00567842    0.00735075   -0.00794779
     atom  134 type  5   force =     0.01236734    0.04247389    0.01421713
     atom  135 type  5   force =    -0.01750004   -0.01793628    0.02987438
     atom  136 type  5   force =    -0.00718192    0.00239457    0.02127526
     atom  137 type  5   force =     0.00253796    0.02040312    0.00581908
     atom  138 type  5   force =     0.01759110   -0.01564539   -0.00183028
     atom  139 type  5   force =    -0.01326196   -0.00986672   -0.02516255
     atom  140 type  5   force =     0.01977171    0.00726399   -0.02668292
     atom  141 type  1   force =     0.01522147    0.01285926   -0.01730706
     atom  142 type  2   force =     0.01312186    0.02268352   -0.01447100
     atom  143 type  3   force =    -0.02233394   -0.05330795    0.05751914
     atom  144 type  3   force =    -0.09281928    0.00755189   -0.02380488
     atom  145 type  3   force =    -0.05533860   -0.04571267    0.02761711
     atom  146 type  3   force =    -0.00590457   -0.05250429   -0.02185418
     atom  147 type  3   force =     0.05101012   -0.07414590    0.01057901
     atom  148 type  3   force =    -0.02821106   -0.00627052   -0.01315472
     atom  149 type  4   force =     0.03203145   -0.02448104   -0.01690502
     atom  150 type  4   force =    -0.02275276    0.03446766    0.00735229
     atom  151 type  4   force =    -0.00185371   -0.00739319   -0.00506276
     atom  152 type  4   force =    -0.03187080    0.00376274    0.05060695
     atom  153 type  4   force =     0.03078088   -0.00818661    0.06011121
     atom  154 type  4   force =     0.01691836    0.00540658   -0.03471369
     atom  155 type  4   force =     0.00424936    0.02719692    0.05090641
     atom  156 type  4   force =    -0.00984512    0.06160125    0.02314038
     atom  157 type  4   force =     0.02294323    0.04860186    0.03422477
     atom  158 type  4   force =     0.00168307    0.07849145   -0.00107938
     atom  159 type  4   force =    -0.00977154    0.04880621    0.00342256
     atom  160 type  4   force =     0.02346314   -0.03027465   -0.01286834
     atom  161 type  4   force =     0.02157045   -0.03058042   -0.02426037
     atom  162 type  4   force =     0.02185052   -0.01364715    0.01880695
     atom  163 type  2   force =     0.04081301   -0.02292917    0.01180565
     atom  164 type  3   force =    -0.03474448    0.00411544    0.03475369
     atom  165 type  3   force =     0.03442749   -0.02130728   -0.15376776
     atom  166 type  4   force =     0.02273622   -0.00927279   -0.00875229
     atom  167 type  4   force =    -0.07612953    0.32195104    0.52798967
     atom  168 type  4   force =     0.05678963    0.01770521    0.16605552
     atom  169 type  4   force =    -0.01763186    0.00628704    0.03614978
     atom  170 type  4   force =    -0.06031812    0.00050995    0.04217355
     atom  171 type  4   force =     0.01829191   -0.02585058    0.05855608
     atom  172 type  4   force =     0.00812908    0.02818387   -0.02537446
     atom  173 type  4   force =     0.01887629    0.02380218    0.00003501
     atom  174 type  4   force =    -0.03860204    0.00838177    0.03551471
     atom  175 type  4   force =    -0.00170636    0.01325591    0.02305099
     atom  176 type  2   force =    -0.04762557    0.01811470   -0.07969448
     atom  177 type  3   force =    -0.05042608    0.02804089    0.03514897
     atom  178 type  3   force =     0.02849547   -0.05084538    0.03508784
     atom  179 type  4   force =     0.03966385   -0.02214264    0.00241979
     atom  180 type  4   force =    -0.03538275    0.01914139    0.05021803
     atom  181 type  4   force =     0.01836902    0.01380353   -0.04177766
     atom  182 type  4   force =    -0.03120696   -0.01322370   -0.04207251
     atom  183 type  4   force =     0.01248198    0.04286129    0.01803847
     atom  184 type  4   force =     0.00114896   -0.04155802   -0.00603124
     atom  185 type  4   force =     0.06069079   -0.05373325    0.02088812
     atom  186 type  4   force =    -0.03871571   -0.00085795   -0.01238306
     atom  187 type  1   force =     0.00134767    0.00988494   -0.00591013
     atom  188 type  1   force =     0.00344996   -0.00121496   -0.00706246
     atom  189 type  1   force =     0.01159087    0.01759734   -0.02936018
     atom  190 type  2   force =    -0.01219864   -0.02830988    0.01314613
     atom  191 type  3   force =     0.02161053    0.00085900   -0.02266346
     atom  192 type  3   force =    -0.00578015   -0.00437787    0.05413129
     atom  193 type  3   force =     0.02937425   -0.01671889    0.03374092
     atom  194 type  3   force =     0.04209509   -0.05024611   -0.05772982
     atom  195 type  3   force =     0.01317631   -0.01653525   -0.01941560
     atom  196 type  3   force =    -0.00068049   -0.02942233    0.03546693
     atom  197 type  4   force =    -0.02603059   -0.00408039   -0.00376906
     atom  198 type  4   force =     0.00399220   -0.01134020   -0.03336272
     atom  199 type  4   force =    -0.00860950    0.06253269    0.04152449
     atom  200 type  4   force =    -0.01459941   -0.04565845   -0.00315515
     atom  201 type  4   force =    -0.00038382   -0.00637829   -0.01004042
     atom  202 type  4   force =    -0.01686728    0.00603551    0.00423162
     atom  203 type  4   force =     0.01179079    0.03202543   -0.00885210
     atom  204 type  4   force =     0.03975555    0.05689338   -0.03961029
     atom  205 type  4   force =    -0.01887483    0.03238869    0.03546835
     atom  206 type  4   force =     0.00989455    0.00451472    0.03780920
     atom  207 type  4   force =    -0.00304109    0.00833348    0.02073896
     atom  208 type  4   force =     0.00299657   -0.03934586   -0.01339909
     atom  209 type  4   force =    -0.02548171   -0.00665768    0.03206038
     atom  210 type  4   force =     0.00671086    0.01504232    0.00340808
     atom  211 type  4   force =    -0.03119837    0.00195130   -0.00847489
     atom  212 type  4   force =    -0.03953741    0.01755944   -0.02367767
     atom  213 type  1   force =     0.00112708   -0.01147643    0.01641253
     atom  214 type  2   force =    -0.04505670    0.00417351   -0.03074266
     atom  215 type  2   force =     0.01473761    0.00685278   -0.02005051
     atom  216 type  3   force =    -0.12225439    0.03359406   -0.00514249
     atom  217 type  3   force =     0.00891661    0.02895646   -0.03712724
     atom  218 type  3   force =    -0.01064625    0.01623918   -0.02023352
     atom  219 type  3   force =     0.12106257   -0.03163170   -0.05227447
     atom  220 type  3   force =    -0.00536972    0.03887319   -0.00653329
     atom  221 type  3   force =    -0.02697176    0.01996163   -0.02577616
     atom  222 type  4   force =    -0.00669482   -0.00760442    0.01237138
     atom  223 type  4   force =     0.05243339    0.00748215    0.03223984
     atom  224 type  4   force =    -0.00065949    0.00582864    0.03713373
     atom  225 type  4   force =    -0.02323898   -0.02692615    0.02851231
     atom  226 type  4   force =    -0.05772648   -0.00802229    0.00887908
     atom  227 type  4   force =     0.01548168    0.03259922   -0.04331722
     atom  228 type  4   force =     0.00129049    0.01002203    0.01187406
     atom  229 type  4   force =     0.02973618    0.04333819    0.06956956
     atom  230 type  4   force =     0.01810421    0.00501380    0.05084378
     atom  231 type  4   force =    -0.00064433   -0.04343186   -0.01945869
     atom  232 type  4   force =    -0.00133500   -0.01921238   -0.01680392
     atom  233 type  4   force =     0.03102311   -0.00226179   -0.00505655
     atom  234 type  4   force =     0.00120975   -0.00237940   -0.01931719
     atom  235 type  4   force =     0.04303760   -0.00706532    0.03945287
     atom  236 type  4   force =    -0.05396740    0.01541933   -0.01902895
     atom  237 type  1   force =     0.00598101    0.00864600   -0.01840281
     atom  238 type  1   force =    -0.00782956   -0.01443925   -0.01555420
     atom  239 type  1   force =    -0.00684018   -0.00507007    0.00133581
     atom  240 type  2   force =     0.01784811    0.01928191   -0.00273794
     atom  241 type  2   force =     0.05487462    0.00628065   -0.02638137
     atom  242 type  3   force =    -0.00604506   -0.02363479    0.00238259
     atom  243 type  3   force =     0.05604764   -0.02774256    0.02653925
     atom  244 type  3   force =     0.03535559    0.03924091    0.05255629
     atom  245 type  3   force =    -0.09234927   -0.00989725   -0.05969010
     atom  246 type  3   force =     0.04414955    0.07389077   -0.06707917
     atom  247 type  3   force =     0.03269408    0.04227373   -0.06352376
     atom  248 type  4   force =    -0.02393438   -0.01768176    0.02726128
     atom  249 type  4   force =    -0.09712942   -0.01069831   -0.02275543
     atom  250 type  4   force =    -0.01511590   -0.03093057   -0.03907633
     atom  251 type  4   force =     0.00087290    0.04726040    0.01936738
     atom  252 type  4   force =     0.02156822    0.02565881    0.04227997
     atom  253 type  4   force =     0.02528265    0.00272561    0.00442899
     atom  254 type  4   force =     0.03217183   -0.01991865   -0.01321128
     atom  255 type  4   force =    -0.04988027   -0.04140916    0.00654077
     atom  256 type  4   force =    -0.05455475   -0.06519704    0.01932298
     atom  257 type  4   force =    -0.02265503    0.02743725    0.02106436
     atom  258 type  4   force =    -0.03052368   -0.01610806    0.03007555
     atom  259 type  4   force =    -0.00350940    0.00082133   -0.00376751
     atom  260 type  4   force =    -0.02625935    0.00049210   -0.01804306
     atom  261 type  4   force =     0.01438324   -0.04211446    0.01152227
     atom  262 type  4   force =     0.02424236   -0.03535955    0.03452193
     atom  263 type  4   force =    -0.02622980    0.01321069   -0.00061129
     atom  264 type  4   force =     0.01292127    0.00151069    0.02110708
     atom  265 type  5   force =     0.00739058    0.00233748   -0.02049909
     atom  266 type  5   force =     0.04404667    0.02539800    0.04058893
     atom  267 type  5   force =    -0.00915908    0.00914363   -0.01277764
     atom  268 type  5   force =     0.00003969   -0.00476815    0.01499986
     atom  269 type  5   force =     0.00517506    0.00190568    0.01843992
     atom  270 type  5   force =    -0.00703581   -0.00857005   -0.00048734
     atom  271 type  5   force =     0.01242101   -0.03481149   -0.03756022
     atom  272 type  5   force =     0.01433469    0.00680908   -0.02008419
     atom  273 type  5   force =    -0.01631649   -0.00955061   -0.02146542
     atom  274 type  5   force =    -0.00930941   -0.01100887   -0.00142491
     atom  275 type  5   force =    -0.04068186   -0.01271059    0.02964196
     atom  276 type  5   force =     0.11598070    0.08214689    0.10267976
     atom  277 type  5   force =    -0.00482848   -0.05054684    0.02186655
     atom  278 type  5   force =     0.04633256    0.01006257    0.01354243
     atom  279 type  5   force =    -0.00665255   -0.04001089   -0.03435386
     atom  280 type  5   force =     0.01427362    0.00772363   -0.02101217
     atom  281 type  4   force =    -0.01584773    0.03643640   -0.02098010
     atom  282 type  5   force =    -0.00195422    0.01805360    0.00351564
     atom  283 type  5   force =     0.00584854   -0.01921585    0.02474587
     atom  284 type  4   force =    -0.04147523    0.02106912   -0.01600963
     atom  285 type  5   force =     0.06144366   -0.04176440   -0.00357147
     atom  286 type  5   force =    -0.02352205    0.01341584    0.01244846
     atom  287 type  4   force =    -0.03115501    0.01527604   -0.07235108
     atom  288 type  5   force =     0.06589911    0.04976789    0.02962763
     atom  289 type  5   force =    -0.02504821   -0.06500370    0.01485609
     atom  290 type  4   force =     0.00395973   -0.02820988    0.01643420
     atom  291 type  5   force =    -0.00618207    0.01062027    0.00525959
     atom  292 type  5   force =     0.00657150   -0.00242394   -0.01799768
     atom  293 type  4   force =    -0.01727458    0.02812756    0.01342848
     atom  294 type  5   force =    -0.00001850   -0.01822432   -0.00402764
     atom  295 type  5   force =     0.00694119   -0.01393460   -0.01244185
     atom  296 type  4   force =     0.03333880   -0.01041856   -0.01146697
     atom  297 type  5   force =    -0.00540890    0.00738214    0.00267495
     atom  298 type  5   force =    -0.03184641    0.01032203   -0.00069756
     atom  299 type  4   force =     0.03402739   -0.02052652    0.00229960
     atom  300 type  5   force =    -0.00801103    0.00010378   -0.00658978
     atom  301 type  5   force =    -0.01264136    0.01043173    0.00567568
     atom  302 type  4   force =     0.04144232   -0.00728072   -0.05682410
     atom  303 type  5   force =    -0.00575061    0.01482028    0.02048170
     atom  304 type  5   force =    -0.02372646   -0.01298699    0.03750969
     atom  305 type  4   force =    -0.07455863   -0.04903316   -0.01903835
     atom  306 type  5   force =     0.06106020   -0.03190820    0.00423139
     atom  307 type  5   force =    -0.01828318    0.07067385    0.01031641
     atom  308 type  4   force =     0.03571539    0.03844472   -0.03953012
     atom  309 type  5   force =     0.00990636    0.00740641    0.01195905
     atom  310 type  5   force =    -0.03340044   -0.04393971    0.02137997
     atom  311 type  4   force =    -0.02110023   -0.02281997   -0.07454072
     atom  312 type  5   force =    -0.00067708    0.01089429    0.00610584
     atom  313 type  5   force =     0.01497922    0.01570067    0.06930288
     atom  314 type  4   force =     0.02472906   -0.03985572    0.00583283
     atom  315 type  5   force =    -0.00926583    0.01648071   -0.00614359
     atom  316 type  5   force =    -0.00695005    0.01393943   -0.00029236
     atom  317 type  4   force =     0.00842944    0.04364182   -0.08309707
     atom  318 type  5   force =     0.01704488   -0.03967742    0.02316671
     atom  319 type  5   force =    -0.03499585    0.01041204    0.04571140
     atom  320 type  4   force =     0.04554028   -0.01123388   -0.05300401
     atom  321 type  5   force =    -0.01393308   -0.01637904    0.01268120
     atom  322 type  5   force =    -0.02709452    0.02479461    0.03655826
     atom  323 type  4   force =    -0.06223934   -0.02642921   -0.02021860
     atom  324 type  5   force =     0.01330647    0.00034055   -0.02980350
     atom  325 type  5   force =     0.04558533    0.01965275    0.03777935
     atom  326 type  4   force =     0.00161741   -0.00254156   -0.00225082
     atom  327 type  5   force =     0.00566966   -0.01357991    0.01962934
     atom  328 type  5   force =    -0.01720176    0.01218837    0.00669752
     atom  329 type  4   force =    -0.07891447    0.03322939   -0.01665920
     atom  330 type  5   force =     0.04783510   -0.01749005    0.00723046
     atom  331 type  5   force =     0.03575969   -0.01832888    0.01035440
     atom  332 type  4   force =    -0.05642580   -0.41565569   -0.65023355
     atom  333 type  5   force =     0.02359739    0.02243600   -0.01108924
     atom  334 type  5   force =    -0.00311978    0.01032986    0.00801880
     atom  335 type  4   force =     0.04155995    0.00988210    0.04215161
     atom  336 type  5   force =    -0.01708154    0.00877368   -0.01523242
     atom  337 type  5   force =    -0.02799915   -0.02586727   -0.00970707
     atom  338 type  4   force =     0.00703464   -0.04804837   -0.01245418
     atom  339 type  5   force =     0.01188981    0.01284683    0.00355632
     atom  340 type  5   force =     0.00100482    0.01192520    0.01293198
     atom  341 type  4   force =     0.04025607   -0.02653003   -0.04736468
     atom  342 type  5   force =    -0.00771786   -0.01365086    0.03051493
     atom  343 type  5   force =    -0.02681766    0.03496428    0.02050622
     atom  344 type  4   force =     0.00527616   -0.00680968   -0.03704378
     atom  345 type  5   force =     0.00599588    0.00552198    0.02595866
     atom  346 type  5   force =     0.00010641   -0.00005717    0.00376842
     atom  347 type  4   force =     0.05134625    0.05390964   -0.05690454
     atom  348 type  5   force =    -0.01477852   -0.01742703    0.00229206
     atom  349 type  5   force =    -0.04197866   -0.01994713    0.03863735
     atom  350 type  4   force =     0.00268619    0.03316642   -0.02268335
     atom  351 type  5   force =     0.01165110    0.02865087    0.02073931
     atom  352 type  5   force =    -0.00666385   -0.06230109    0.00526132
     atom  353 type  4   force =     0.00945030   -0.02011069    0.02229037
     atom  354 type  5   force =    -0.01221045   -0.00358423    0.01903530
     atom  355 type  5   force =    -0.00303862    0.02005928   -0.01884305
     atom  356 type  4   force =    -0.03722389   -0.03273151   -0.02068234
     atom  357 type  5   force =     0.03282879    0.00910316    0.00419442
     atom  358 type  5   force =    -0.00175522    0.00100365    0.00028541
     atom  359 type  4   force =    -0.01440333   -0.08493769    0.00009711
     atom  360 type  5   force =    -0.00087214   -0.00184722    0.00417386
     atom  361 type  5   force =     0.01689796    0.08707310    0.01006381
     atom  362 type  4   force =    -0.00317346   -0.04572800    0.00739686
     atom  363 type  5   force =    -0.01086663    0.01058565   -0.00421485
     atom  364 type  5   force =     0.01002338    0.02809252   -0.01360518
     atom  365 type  4   force =     0.00838613    0.00752814   -0.01639529
     atom  366 type  5   force =    -0.03053149   -0.00254401    0.04147185
     atom  367 type  5   force =     0.01695871    0.00952605   -0.02921208
     atom  368 type  4   force =     0.03103016    0.00180739    0.02288855
     atom  369 type  5   force =    -0.00247273    0.03286403   -0.03102505
     atom  370 type  5   force =    -0.02102000   -0.03578373    0.00311545
     atom  371 type  4   force =    -0.02299732   -0.01309919   -0.02357063
     atom  372 type  5   force =     0.01148462    0.01773858    0.00916499
     atom  373 type  5   force =     0.00908075    0.02361834    0.00928529
     atom  374 type  4   force =     0.05652524    0.02898926   -0.02436645
     atom  375 type  5   force =    -0.06271360   -0.02981028    0.02600131
     atom  376 type  5   force =    -0.00068297    0.00180641   -0.00441286
     atom  377 type  4   force =     0.01484344   -0.08905454   -0.01099948
     atom  378 type  5   force =     0.00164167    0.08076705    0.00036729
     atom  379 type  5   force =    -0.01170447    0.01878140    0.01445895
     atom  380 type  4   force =    -0.01191920   -0.02437323    0.02447080
     atom  381 type  5   force =     0.01070141    0.02188281    0.00231012
     atom  382 type  5   force =    -0.01527835    0.00620832   -0.00614057
     atom  383 type  4   force =     0.03758865    0.03404113   -0.02380969
     atom  384 type  5   force =    -0.00164032   -0.02848885    0.03506835
     atom  385 type  5   force =    -0.02253460    0.00146836   -0.01376414
     atom  386 type  4   force =     0.05202712   -0.01723339   -0.03869815
     atom  387 type  5   force =    -0.04765319   -0.00299048    0.01134215
     atom  388 type  5   force =    -0.01440353    0.01527710    0.03568743
     atom  389 type  4   force =     0.01846307   -0.01925267    0.01222858
     atom  390 type  5   force =     0.00394603    0.01137760   -0.01659542
     atom  391 type  5   force =    -0.00609518    0.01848095   -0.01873034
     atom  392 type  4   force =    -0.03894542    0.01448971   -0.06135742
     atom  393 type  5   force =     0.01469430   -0.00587745    0.00689374
     atom  394 type  5   force =     0.04057439   -0.00308640    0.05015870
     atom  395 type  4   force =     0.01165992    0.01638018    0.00771388
     atom  396 type  5   force =    -0.01314712   -0.00290176   -0.01623879
     atom  397 type  5   force =    -0.01022126   -0.00309423   -0.01319590
     atom  398 type  4   force =    -0.04927366    0.01494188    0.03821810
     atom  399 type  5   force =     0.03825480   -0.01470396   -0.03876776
     atom  400 type  5   force =    -0.01409904    0.00611851    0.00819511
     atom  401 type  4   force =    -0.07085365   -0.00169589   -0.01851777
     atom  402 type  5   force =     0.02160052   -0.01821063   -0.03289235
     atom  403 type  5   force =     0.05045258    0.01126040    0.04567828
     atom  404 type  4   force =    -0.01284531   -0.00019998   -0.02807513
     atom  405 type  5   force =     0.01233064   -0.02931836    0.01133930
     atom  406 type  5   force =     0.00637504   -0.01690352    0.00448570
     atom  407 type  4   force =    -0.00961976   -0.04353813   -0.01195328
     atom  408 type  5   force =     0.00524868   -0.00125537   -0.04626271
     atom  409 type  5   force =    -0.01468908    0.05424110    0.06297320
     atom  410 type  4   force =     0.02128540    0.02942518   -0.07922405
     atom  411 type  5   force =     0.02265600   -0.02414592    0.01194170
     atom  412 type  5   force =    -0.03941991   -0.00328972    0.06372814
     atom  413 type  4   force =     0.00587525   -0.04347340   -0.03190012
     atom  414 type  5   force =     0.00875542    0.04134878    0.01744492
     atom  415 type  5   force =    -0.00574743    0.00569185    0.01015334
     atom  416 type  4   force =     0.00116534    0.03133840    0.00025246
     atom  417 type  5   force =    -0.00169669    0.00722185   -0.01399484
     atom  418 type  5   force =    -0.00705364   -0.00637807    0.00632449
     atom  419 type  4   force =    -0.01531884    0.03796687   -0.03851092
     atom  420 type  5   force =     0.04421087   -0.00800795    0.00425900
     atom  421 type  5   force =     0.00911604   -0.02977046    0.02515065
     atom  422 type  4   force =     0.04016721    0.03240254    0.01311951
     atom  423 type  5   force =    -0.01600558   -0.01940537   -0.00023855
     atom  424 type  5   force =    -0.02604922   -0.01708527   -0.02473502
     atom  425 type  4   force =     0.04407513   -0.01282505    0.03961574
     atom  426 type  5   force =    -0.00491041    0.01622469   -0.05574480
     atom  427 type  5   force =    -0.03271024   -0.00659850    0.01262845
     atom  428 type  4   force =    -0.01948498   -0.03532641   -0.02189936
     atom  429 type  5   force =     0.01019695    0.01962690    0.02557488
     atom  430 type  5   force =     0.00477620    0.01040344    0.00629528
     atom  431 type  4   force =     0.06702794   -0.02113157    0.03206334
     atom  432 type  5   force =    -0.03138825    0.03901924   -0.00347692
     atom  433 type  5   force =    -0.02943814   -0.02086828   -0.01817647
     atom  434 type  4   force =    -0.00262356   -0.01424672    0.01904427
     atom  435 type  5   force =     0.00736664    0.01607852   -0.01058473
     atom  436 type  5   force =    -0.02733348    0.00006381   -0.01482792
     atom  437 type  4   force =     0.00560169   -0.02977998   -0.05396135
     atom  438 type  5   force =    -0.01552455   -0.00111911    0.03210759
     atom  439 type  5   force =     0.00942976    0.04239882    0.03360786
     atom  440 type  4   force =     0.04053334   -0.04473711   -0.01486205
     atom  441 type  5   force =     0.00332099   -0.02395129   -0.00393432
     atom  442 type  5   force =    -0.04430822    0.06270039    0.01513637
     atom  443 type  4   force =     0.03720811   -0.04965808    0.02456449
     atom  444 type  5   force =    -0.03750474    0.05930140    0.00222767
     atom  445 type  5   force =     0.00706217   -0.00377613   -0.03403853
     atom  446 type  4   force =    -0.02949308   -0.03128384   -0.00816106
     atom  447 type  5   force =     0.01355728   -0.00586242   -0.01130116
     atom  448 type  5   force =     0.01097651    0.05489943    0.02061030
     atom  449 type  4   force =     0.06009770   -0.02088863   -0.05190791
     atom  450 type  5   force =    -0.06240098    0.03971514   -0.11077037
     atom  451 type  5   force =    -0.05268020    0.01744621   -0.00678800
     atom  452 type  4   force =    -0.00116497    0.09538284    0.02769618
     atom  453 type  5   force =     0.00678795   -0.04325843   -0.00149632
     atom  454 type  5   force =    -0.01858242   -0.02783584   -0.01526466
     atom  455 type  4   force =    -0.00370061   -0.00622131    0.00245948
     atom  456 type  5   force =     0.00685973    0.00332297   -0.02426187
     atom  457 type  5   force =    -0.03235955    0.01708216    0.00418235
     atom  458 type  4   force =    -0.01035243   -0.05857133   -0.03623083
     atom  459 type  5   force =    -0.00968551    0.02511847    0.03335060
     atom  460 type  5   force =     0.01312668    0.03381196   -0.00065908
     atom  461 type  4   force =     0.04619647    0.04585998   -0.03884073
     atom  462 type  5   force =    -0.03339726   -0.03579765    0.05925094
     atom  463 type  5   force =    -0.00851436   -0.01218035   -0.00133784
     atom  464 type  4   force =    -0.03564875   -0.04560655    0.00987124
     atom  465 type  5   force =     0.01672805    0.04220515   -0.03509730
     atom  466 type  5   force =     0.01161927   -0.00325301   -0.00147186
     atom  467 type  4   force =    -0.00193613    0.05452631    0.00393357
     atom  468 type  5   force =     0.01546685   -0.05266396    0.00695506
     atom  469 type  5   force =    -0.00269349    0.00965569   -0.00094741
     atom  470 type  4   force =     0.00885036    0.02035205   -0.01280658
     atom  471 type  5   force =    -0.00819750   -0.02106852   -0.00114581
     atom  472 type  5   force =     0.00476320   -0.00210019   -0.00649908
     atom  473 type  4   force =    -0.00558111   -0.05384425   -0.02624322
     atom  474 type  5   force =    -0.01436006    0.00633014    0.01138270
     atom  475 type  5   force =     0.00845890   -0.00481932   -0.01552334
     atom  476 type  4   force =     0.04250276   -0.01762967   -0.00991342
     atom  477 type  5   force =    -0.00336068    0.01328416    0.03317139
     atom  478 type  5   force =    -0.02940433   -0.00732221   -0.02654280
     atom  479 type  4   force =     0.01312482    0.04607193    0.05659799
     atom  480 type  5   force =    -0.04065702   -0.02572526   -0.02455072
     atom  481 type  5   force =     0.03864661   -0.01855766   -0.03534586
     atom  482 type  4   force =    -0.04460109    0.00053436    0.02272826
     atom  483 type  5   force =     0.00758204   -0.02295619   -0.01182886
     atom  484 type  5   force =     0.02652266    0.02670867   -0.02364937
     atom  485 type  4   force =     0.01360228   -0.04122289   -0.03889555
     atom  486 type  5   force =     0.04454531    0.00760079    0.06940819
     atom  487 type  5   force =    -0.05023196    0.03995544   -0.01324081
     atom  488 type  4   force =     0.01368927   -0.01440475    0.01266339
     atom  489 type  5   force =     0.01048418   -0.01583130    0.00635136
     atom  490 type  5   force =    -0.01831099    0.02564201   -0.01502355
     atom  491 type  4   force =     0.00109686   -0.02295324    0.00431315
     atom  492 type  5   force =    -0.01191014    0.01494132    0.01968288
     atom  493 type  5   force =     0.00933083    0.00532088   -0.00544456

     Total force =     1.568849     Total SCF correction =     0.000490
     Message from routine punch:
     Nothing written, as per user request (disk_io='none')

     init_run     :     34.94s CPU     35.97s WALL (       1 calls)
     electrons    :    810.65s CPU    825.96s WALL (       1 calls)
     forces       :      8.59s CPU      9.20s WALL (       1 calls)

     Called by init_run:
     wfcinit      :     31.53s CPU     32.30s WALL (       1 calls)
     potinit      :      0.22s CPU      0.35s WALL (       1 calls)
     hinit0       :      1.53s CPU      1.57s WALL (       1 calls)

     Called by electrons:
     c_bands      :    676.21s CPU    688.85s WALL (      12 calls)
     sum_band     :    131.37s CPU    132.87s WALL (      12 calls)
     v_of_rho     :      2.45s CPU      3.47s WALL (      13 calls)
     mix_rho      :      0.57s CPU      0.78s WALL (      12 calls)

     Called by c_bands:
     init_us_2    :      2.97s CPU      3.12s WALL (      25 calls)
     init_us_2:cp :      2.97s CPU      3.12s WALL (      25 calls)
     regterg      :    672.83s CPU    684.15s WALL (      12 calls)

     Called by *egterg:
     rdiaghg      :      6.89s CPU      7.44s WALL (      42 calls)
     h_psi        :    597.28s CPU    605.17s WALL (      43 calls)
     g_psi        :      0.41s CPU      0.42s WALL (      30 calls)

     Called by h_psi:
     h_psi:calbec :     42.39s CPU     44.02s WALL (      43 calls)
     vloc_psi     :    127.59s CPU    129.07s WALL (      43 calls)
     add_vuspsi   :     38.64s CPU     39.39s WALL (      43 calls)
     h_psi_meta   :    387.33s CPU    391.34s WALL (      43 calls)

     General routines
     calbec       :     48.10s CPU     49.91s WALL (      47 calls)
     fft          :      2.91s CPU      3.63s WALL (     129 calls)
     ffts         :      0.14s CPU      0.26s WALL (      24 calls)
     fftw         :    582.49s CPU    588.43s WALL (  151008 calls)
     interpolate  :      0.01s CPU      0.01s WALL (      13 calls)

     Parallel routines

     PWSCF        :  14m14.37s CPU  14m31.77s WALL


   This run was terminated on:  10:48:27   9Mar2025            

=------------------------------------------------------------------------------=
   JOB DONE.
=------------------------------------------------------------------------------=
