
     Program PWSCF v.7.3 starts on  9Mar2025 at 12:51:49 

     This program is part of the open-source Quantum ESPRESSO suite
     for quantum simulation of materials; please cite
         "P. Giannozzi et al., J. Phys.:Condens. Matter 21 395502 (2009);
         "P. Giannozzi et al., J. Phys.:Condens. Matter 29 465901 (2017);
         "P. Giannozzi et al., J. Chem. Phys. 152 154105 (2020);
          URL http://www.quantum-espresso.org", 
     in publications or presentations arising from this work. More details at
     http://www.quantum-espresso.org/quote

     Parallel version (MPI & OpenMP), running on     120 processor cores
     Number of MPI processes:               120
     Threads/MPI process:                     1

     MPI processes distributed on     1 nodes
     597264 MiB available memory on the printing compute node when the environment starts

     Reading input from pw-water-99.in
Warning: card &CELL ignored
Warning: card / ignored
Warning: card &FCP ignored
Warning: card / ignored
Warning: card &RISM ignored
Warning: card / ignored

     Current dimensions of program PWSCF are:
     Max number of different atomic species (ntypx) = 10
     Max number of k-points (npk) =  40000
     Max angular momentum in pseudopotentials (lmaxx) =  4

     IMPORTANT: XC functional enforced from input :
     Exchange-correlation= SCAN
                           (   0   0   0   0   0 263 267)
     Any further DFT definition will be discarded
     Please, verify this is what you really want


     gamma-point specific algorithms are used

     R & G space division:  proc/nbgrp/npool/nimage =     120
     Subspace diagonalization in iterative solution of the eigenvalue problem:
     one sub-group per band group will be used
     ELPA distributed-memory algorithm (size of sub-group: 10* 10 procs)


     Parallelization info
     --------------------
     sticks:   dense  smooth     PW     G-vecs:    dense   smooth      PW
     Min         223     223     55                53054    53054    6618
     Max         226     226     58                53096    53096    6642
     Sum       27001   27001   6747              6368777  6368777  796049

     Using Slab Decomposition



     bravais-lattice index     =            0
     lattice parameter (alat)  =      27.1743  a.u.
     unit-cell volume          =   40863.0649 (a.u.)^3
     number of atoms/cell      =          493
     number of atomic types    =            5
     number of electrons       =      2104.00
     number of Kohn-Sham states=         1052
     kinetic-energy cutoff     =     110.0000  Ry
     charge density cutoff     =     440.0000  Ry
     scf convergence threshold =      1.0E-06
     mixing beta               =       0.5000
     number of iterations used =            8  plain     mixing
     Exchange-correlation= SCAN
                           (   0   0   0   0   0 263 267)

     celldm(1)=  27.174262  celldm(2)=   0.000000  celldm(3)=   0.000000
     celldm(4)=   0.000000  celldm(5)=   0.000000  celldm(6)=   0.000000

     crystal axes: (cart. coord. in units of alat)
               a(1) = (   1.000000   0.000000   0.000000 )  
               a(2) = (   0.263718   1.045271   0.000000 )  
               a(3) = (  -1.114529  -1.155389   1.948179 )  

     reciprocal axes: (cart. coord. in units 2 pi/alat)
               b(1) = (  1.000000 -0.252296  0.422460 )  
               b(2) = ( -0.000000  0.956690  0.567375 )  
               b(3) = (  0.000000  0.000000  0.513300 )  


     PseudoPot. # 1 for K  read from file:
     /scratch/zhouwq/DFT-feldspar-surface/script-dft/K_ONCV_PBE_sr.upf
     MD5 check sum: 1b7a13238029e3acac828725779bbc07
     Pseudo is Norm-conserving, Zval =  9.0
     Generated using ONCVPSP code by D. R. Hamann
     Using radial grid of 2222 points,  6 beta functions with: 
                l(1) =   0
                l(2) =   0
                l(3) =   1
                l(4) =   1
                l(5) =   2
                l(6) =   2

     PseudoPot. # 2 for Al read from file:
     /scratch/zhouwq/DFT-feldspar-surface/script-dft/Al_ONCV_PBE_sr.upf
     MD5 check sum: f1d308f5052db2acb2ab62005e7ebd82
     Pseudo is Norm-conserving, Zval = 11.0
     Generated using ONCVPSP code by D. R. Hamann
     Using radial grid of 1876 points,  4 beta functions with: 
                l(1) =   0
                l(2) =   0
                l(3) =   1
                l(4) =   1

     PseudoPot. # 3 for Si read from file:
     /scratch/zhouwq/DFT-feldspar-surface/script-dft/Si_ONCV_PBE_sr.upf
     MD5 check sum: 8553c464762ac42b85b1eed164b4d029
     Pseudo is Norm-conserving, Zval =  4.0
     Generated using ONCVPSP code by D. R. Hamann
     Using radial grid of 1510 points,  4 beta functions with: 
                l(1) =   0
                l(2) =   0
                l(3) =   1
                l(4) =   1

     PseudoPot. # 4 for O  read from file:
     /scratch/zhouwq/DFT-feldspar-surface/script-dft/O_ONCV_PBE_sr.upf
     MD5 check sum: 503208cc3dd01d9a06cc7045986f7d49
     Pseudo is Norm-conserving, Zval =  6.0
     Generated using ONCVPSP code by D. R. Hamann
     Using radial grid of  936 points,  4 beta functions with: 
                l(1) =   0
                l(2) =   0
                l(3) =   1
                l(4) =   1

     PseudoPot. # 5 for H  read from file:
     /scratch/zhouwq/DFT-feldspar-surface/script-dft/H_ONCV_PBE_sr.upf
     MD5 check sum: 8975ef619c0c80d0ef0fa21f3286b90d
     Pseudo is Norm-conserving, Zval =  1.0
     Generated using ONCVPSP code by D. R. Hamann
     Using radial grid of 1166 points,  2 beta functions with: 
                l(1) =   0
                l(2) =   0

     atomic species   valence    mass     pseudopotential
     K                 9.00    39.09830     K ( 1.00)
     Al               11.00    26.98154     Al( 1.00)
     Si                4.00    28.08500     Si( 1.00)
     O                 6.00    15.99900     O ( 1.00)
     H                 1.00     1.00800     H ( 1.00)

     No symmetry found



   Cartesian axes

     site n.     atom                  positions (alat units)
         1        K      tau(   1) = (  -0.9405833  -0.9105512   2.7552819  )
         2        Al     tau(   2) = (  -0.9324329  -0.6146907   2.7926703  )
         3        Si     tau(   3) = (  -1.0551405  -0.8518432   2.9759605  )
         4        Si     tau(   4) = (  -1.4651041  -1.6664756   2.8228170  )
         5        Si     tau(   5) = (  -1.2088724  -0.8167483   2.8227112  )
         6        Si     tau(   6) = (  -1.3223568  -1.6917284   2.9746692  )
         7        Si     tau(   7) = (  -0.9848367  -0.7188897   2.6126363  )
         8        Si     tau(   8) = (  -1.3347315  -1.5253643   2.7013341  )
         9        O      tau(   9) = (  -1.5697466  -1.6377299   2.8423155  )
        10        O      tau(  10) = (  -1.2079953  -0.8946319   2.7417337  )
        11        O      tau(  11) = (  -1.3005466  -0.8132378   2.8831994  )
        12        O      tau(  12) = (  -1.2371068  -1.6773095   2.9041841  )
        13        O      tau(  13) = (  -0.9227570  -0.6572995   2.5422847  )
        14        O      tau(  14) = (  -1.4184317  -1.5838829   2.7532447  )
        15        O      tau(  15) = (  -1.0934419  -0.4940305   2.5905829  )
        16        O      tau(  16) = (  -0.9524468  -0.7132587   2.7188232  )
        17        O      tau(  17) = (  -1.0596616  -0.7458052   3.0192714  )
        18        O      tau(  18) = (  -1.1880700  -0.7216806   2.7708173  )
        19        O      tau(  19) = (  -1.0905377  -0.6826920   2.5970787  )
        20        O      tau(  20) = (  -1.2323307  -1.5597632   2.7317925  )
        21        O      tau(  21) = (  -1.1122508  -0.8452798   2.8750783  )
        22        O      tau(  22) = (  -1.4182824  -1.6700216   2.9246956  )
        23        Al     tau(  23) = (  -1.0519132  -1.1447473   2.7992106  )
        24        Si     tau(  24) = (  -1.1959916  -1.0008969   2.6991688  )
        25        Si     tau(  25) = (  -1.0963129  -1.2289382   2.6115898  )
        26        O      tau(  26) = (  -1.4348287  -1.1190380   2.8160763  )
        27        O      tau(  27) = (  -0.9800654  -0.8299354   2.5890633  )
        28        O      tau(  28) = (  -1.0898899  -1.3339528   2.5623621  )
        29        O      tau(  29) = (  -1.2782572  -1.0654150   2.7385499  )
        30        O      tau(  30) = (  -1.0229401  -1.1653700   2.5539682  )
        31        O      tau(  31) = (  -1.0706334  -1.2309871   2.7178212  )
        32        O      tau(  32) = (  -1.2013828  -0.9917343   2.5856289  )
        33        O      tau(  33) = (  -1.1000325  -1.0444486   2.7351934  )
        34        O      tau(  34) = (  -1.1984112  -1.1899241   2.5959821  )
        35        O      tau(  35) = (  -1.8314795  -1.9316821   3.6451823  )
        36        Al     tau(  36) = (  -1.6040015  -1.1149578   3.4482159  )
        37        Si     tau(  37) = (  -1.4650862  -1.2449444   3.5571859  )
        38        Si     tau(  38) = (  -1.8136002  -2.0405563   3.6180748  )
        39        O      tau(  39) = (  -1.2166831  -1.1376968   3.4438241  )
        40        O      tau(  40) = (  -1.7040415  -1.4276618   3.6707313  )
        41        O      tau(  41) = (  -1.3731640  -1.1884620   3.5202929  )
        42        O      tau(  42) = (  -1.8783504  -2.1121422   3.6824649  )
        43        O      tau(  43) = (  -1.8303199  -2.0578114   3.5122998  )
        44        O      tau(  44) = (  -1.4748166  -1.2392350   3.6692507  )
        45        O      tau(  45) = (  -1.5519949  -1.2120319   3.4980169  )
        46        O      tau(  46) = (  -1.7088443  -2.0745248   3.6493960  )
        47        K      tau(  47) = (  -1.7111572  -1.3342087   3.5036944  )
        48        K      tau(  48) = (  -1.3456985  -1.7069950   3.2286171  )
        49        K      tau(  49) = (  -1.8541670  -1.8545817   3.4762251  )
        50        Al     tau(  50) = (  -1.7331356  -1.6328983   3.4497466  )
        51        Si     tau(  51) = (  -1.5885961  -1.3946653   3.2773773  )
        52        Si     tau(  52) = (  -1.4545846  -1.6322536   3.4366604  )
        53        Si     tau(  53) = (  -1.4525762  -1.4225443   3.4417034  )
        54        Si     tau(  54) = (  -1.5958023  -1.5999925   3.2732749  )
        55        Si     tau(  55) = (  -1.6764475  -1.5337970   3.6381188  )
        56        Si     tau(  56) = (  -1.6044363  -1.7701626   3.5451127  )
        57        O      tau(  57) = (  -1.3529161  -1.6678450   3.4193049  )
        58        O      tau(  58) = (  -1.4464412  -1.3586523   3.5342085  )
        59        O      tau(  59) = (  -1.5785337  -1.8816023   3.5354776  )
        60        O      tau(  60) = (  -1.5986818  -1.6759168   3.1914403  )
        61        O      tau(  61) = (  -1.3606238  -1.4131639   3.3803469  )
        62        O      tau(  62) = (  -1.6822937  -1.6112794   3.3406819  )
        63        O      tau(  63) = (  -1.7225840  -1.6237189   3.6992026  )
        64        O      tau(  64) = (  -1.5154221  -1.7138277   3.4928069  )
        65        O      tau(  65) = (  -1.6076488  -1.7539992   3.6576284  )
        66        O      tau(  66) = (  -1.6947199  -1.5462565   3.5261152  )
        67        O      tau(  67) = (  -1.5863669  -1.4961629   3.2272478  )
        68        O      tau(  68) = (  -1.4579701  -1.5278117   3.4916213  )
        69        O      tau(  69) = (  -1.5643034  -1.5418189   3.6625991  )
        70        O      tau(  70) = (  -1.6972865  -1.7439964   3.4902409  )
        71        O      tau(  71) = (  -1.5470297  -1.4017065   3.3825567  )
        72        O      tau(  72) = (  -1.4954136  -1.6274592   3.3287535  )
        73        K      tau(  73) = (  -1.1878008  -1.1736707   3.2268916  )
        74        Al     tau(  74) = (  -1.3474615  -0.8496682   2.9912064  )
        75        Al     tau(  75) = (  -1.4461013  -1.9376909   3.2711987  )
        76        Si     tau(  76) = (  -1.3259252  -1.1132293   3.4512216  )
        77        Si     tau(  77) = (  -1.7253810  -1.9269571   3.2903410  )
        78        Si     tau(  78) = (  -1.4579114  -1.0891558   3.2801993  )
        79        Si     tau(  79) = (  -1.5888688  -1.9582699   3.4498913  )
        80        Si     tau(  80) = (  -1.1954402  -0.9792958   3.0823868  )
        81        Si     tau(  81) = (  -1.5890414  -1.7914106   3.1807977  )
        82        O      tau(  82) = (  -0.9552629  -0.8929294   2.9576477  )
        83        O      tau(  83) = (  -1.8364566  -1.9030360   3.2977942  )
        84        O      tau(  84) = (  -1.4582930  -1.1563600   3.1895144  )
        85        O      tau(  85) = (  -1.5555624  -1.0967701   3.3361121  )
        86        O      tau(  86) = (  -1.5051274  -1.9630187   3.3772799  )
        87        O      tau(  87) = (  -1.1040166  -0.9318539   3.0380295  )
        88        O      tau(  88) = (  -1.6728195  -1.8364791   3.2451432  )
        89        O      tau(  89) = (  -1.6033259  -1.8090315   3.0723398  )
        90        O      tau(  90) = (  -1.1939600  -0.9802192   3.1941176  )
        91        O      tau(  91) = (  -1.6088991  -2.0592561   3.5026369  )
        92        O      tau(  92) = (  -1.4428260  -0.9808737   3.2397050  )
        93        O      tau(  93) = (  -1.2964728  -0.9430462   3.0447034  )
        94        O      tau(  94) = (  -1.4902742  -1.8293896   3.2161543  )
        95        O      tau(  95) = (  -1.3657957  -1.1061827   3.3441330  )
        96        O      tau(  96) = (  -1.6860538  -1.9306898   3.3928431  )
        97        K      tau(  97) = (  -1.4524049  -1.0663257   3.0159205  )
        98        K      tau(  98) = (  -1.0696184  -1.4339048   2.7276178  )
        99        K      tau(  99) = (  -1.5803463  -1.5970157   3.0152414  )
       100        Al     tau( 100) = (  -1.3114225  -1.4041444   3.2727517  )
       101        Al     tau( 101) = (  -1.4589453  -1.3750561   2.9804135  )
       102        Si     tau( 102) = (  -1.3239073  -1.1387072   2.8121465  )
       103        Si     tau( 103) = (  -1.1809511  -1.3840516   2.9660861  )
       104        Si     tau( 104) = (  -1.1795884  -1.1703356   2.9716133  )
       105        Si     tau( 105) = (  -1.3223638  -1.3430583   2.8107939  )
       106        Si     tau( 106) = (  -1.4467544  -1.2710416   3.1669767  )
       107        Si     tau( 107) = (  -1.3186837  -1.5119551   3.0831883  )
       108        O      tau( 108) = (  -1.6979130  -1.3557472   3.2938310  )
       109        O      tau( 109) = (  -1.0728526  -1.4081782   2.9551985  )
       110        O      tau( 110) = (  -1.1692899  -1.0919984   3.0548061  )
       111        O      tau( 111) = (  -1.3112194  -1.6234071   3.0686159  )
       112        O      tau( 112) = (  -1.3436305  -1.4153468   2.7229644  )
       113        O      tau( 113) = (  -1.0898307  -1.1599424   2.9104015  )
       114        O      tau( 114) = (  -1.4058025  -1.3461817   2.8781675  )
       115        O      tau( 115) = (  -1.5381171  -1.3232539   3.2097420  )
       116        O      tau( 116) = (  -1.2311172  -1.4602901   3.0286894  )
       117        O      tau( 117) = (  -1.3207549  -1.4960791   3.1914793  )
       118        O      tau( 118) = (  -1.4453536  -1.2764592   3.0543775  )
       119        O      tau( 119) = (  -1.3088584  -1.2427241   2.7630747  )
       120        O      tau( 120) = (  -1.1871919  -1.2758002   3.0132153  )
       121        O      tau( 121) = (  -1.3574302  -1.3034871   3.2221436  )
       122        O      tau( 122) = (  -1.4115605  -1.4674622   3.0383134  )
       123        O      tau( 123) = (  -1.2801336  -1.1447703   2.9140251  )
       124        O      tau( 124) = (  -1.2250973  -1.3719028   2.8614521  )
       125        H      tau( 125) = (  -1.7056360  -1.4260876   3.7376763  )
       126        H      tau( 126) = (  -1.9453498  -2.1276584   3.6832219  )
       127        H      tau( 127) = (  -1.4652309  -1.1738162   3.6863390  )
       128        H      tau( 128) = (  -1.6674067  -2.0705151   3.5976635  )
       129        H      tau( 129) = (  -1.8643647  -1.9229750   3.7045628  )
       130        H      tau( 130) = (  -1.7794988  -1.6094159   3.7371976  )
       131        H      tau( 131) = (  -1.6494202  -1.7055873   3.6881035  )
       132        H      tau( 132) = (  -1.5208224  -1.5290334   3.6144568  )
       133        H      tau( 133) = (  -0.9380120  -0.5958595   2.5244728  )
       134        H      tau( 134) = (  -1.0989210  -0.5626737   2.5839758  )
       135        H      tau( 135) = (  -1.1380955  -0.6978174   2.6424267  )
       136        H      tau( 136) = (  -0.9955455  -0.8418170   2.5266937  )
       137        H      tau( 137) = (  -1.1093574  -1.3380449   2.5003043  )
       138        H      tau( 138) = (  -1.0173391  -1.1016683   2.5747080  )
       139        H      tau( 139) = (  -1.2027145  -1.0552508   2.5632972  )
       140        H      tau( 140) = (  -1.2441371  -1.1983957   2.6422931  )
       141        K      tau( 141) = (  -0.4281476  -0.9189008   2.7481683  )
       142        Al     tau( 142) = (  -0.6862089  -1.6589392   2.8016653  )
       143        Si     tau( 143) = (  -0.5716593  -0.8421598   2.9640989  )
       144        Si     tau( 144) = (  -0.9766497  -1.6600949   2.8108050  )
       145        Si     tau( 145) = (  -0.7015047  -0.8176127   2.8049327  )
       146        Si     tau( 146) = (  -0.8355545  -1.6844588   2.9680788  )
       147        Si     tau( 147) = (  -0.4608042  -0.7141817   2.6196720  )
       148        Si     tau( 148) = (  -0.8348908  -1.5253361   2.7131066  )
       149        O      tau( 149) = (  -1.0787199  -1.6241090   2.8145790  )
       150        O      tau( 150) = (  -0.7126940  -0.9029448   2.7306069  )
       151        O      tau( 151) = (  -0.7884191  -0.8243345   2.8771489  )
       152        O      tau( 152) = (  -0.7452618  -1.6790989   2.9038445  )
       153        O      tau( 153) = (  -0.3972351  -0.6430890   2.5586494  )
       154        O      tau( 154) = (  -0.9191126  -1.5896521   2.7453963  )
       155        O      tau( 155) = (  -0.8343868  -1.5241142   2.6015984  )
       156        O      tau( 156) = (  -0.4350566  -0.7145865   2.7289704  )
       157        O      tau( 157) = (  -0.5861619  -0.7430573   3.0150522  )
       158        O      tau( 158) = (  -0.6982677  -0.7147395   2.7537290  )
       159        O      tau( 159) = (  -0.5687102  -0.6884553   2.6018211  )
       160        O      tau( 160) = (  -0.7416221  -1.5649269   2.7542411  )
       161        O      tau( 161) = (  -0.6063485  -0.8300601   2.8606617  )
       162        O      tau( 162) = (  -0.9363529  -1.6556808   2.9172146  )
       163        Al     tau( 163) = (  -0.5454264  -1.1436538   2.7812540  )
       164        Si     tau( 164) = (  -0.6913122  -1.0114700   2.6929458  )
       165        Si     tau( 165) = (  -0.6126752  -1.2595670   2.6043816  )
       166        O      tau( 166) = (  -0.9354019  -1.1108851   2.8238968  )
       167        O      tau( 167) = (  -0.4338421  -0.8180996   2.5833913  )
       168        O      tau( 168) = (  -0.6282120  -1.3747310   2.6133654  )
       169        O      tau( 169) = (  -0.7797914  -1.0671460   2.7327777  )
       170        O      tau( 170) = (  -0.5714040  -1.2259269   2.5025140  )
       171        O      tau( 171) = (  -0.5578711  -1.2328333   2.6988961  )
       172        O      tau( 172) = (  -0.6916636  -1.0120464   2.5798345  )
       173        O      tau( 173) = (  -0.5921608  -1.0439107   2.7336572  )
       174        O      tau( 174) = (  -0.7114491  -1.2060150   2.6021773  )
       175        O      tau( 175) = (  -1.3384892  -1.9535553   3.6676699  )
       176        Al     tau( 176) = (  -1.1008814  -1.1099002   3.4573834  )
       177        Si     tau( 177) = (  -0.9580415  -1.2484445   3.5458363  )
       178        Si     tau( 178) = (  -1.3007368  -2.0544097   3.6387311  )
       179        O      tau( 179) = (  -1.7231774  -1.1412692   3.4279715  )
       180        O      tau( 180) = (  -1.2320125  -1.4153006   3.6510269  )
       181        O      tau( 181) = (  -0.8780256  -1.1747988   3.5192910  )
       182        O      tau( 182) = (  -1.3473197  -2.1317594   3.7121719  )
       183        O      tau( 183) = (  -1.3339399  -2.0691113   3.5340749  )
       184        O      tau( 184) = (  -0.9689981  -1.2492220   3.6630388  )
       185        O      tau( 185) = (  -1.0519231  -1.2136401   3.5054979  )
       186        O      tau( 186) = (  -1.1879607  -2.0659459   3.6557916  )
       187        K      tau( 187) = (  -1.2160322  -1.3253688   3.4865171  )
       188        K      tau( 188) = (  -0.8468762  -1.6967988   3.2373617  )
       189        K      tau( 189) = (  -1.3614750  -1.8530397   3.5161684  )
       190        Al     tau( 190) = (  -1.2370253  -1.6343276   3.4428278  )
       191        Si     tau( 191) = (  -1.0912588  -1.4043803   3.2695010  )
       192        Si     tau( 192) = (  -0.9534715  -1.6382862   3.4414251  )
       193        Si     tau( 193) = (  -0.9497169  -1.4245338   3.4249936  )
       194        Si     tau( 194) = (  -1.0924721  -1.6134779   3.2771936  )
       195        Si     tau( 195) = (  -1.1891456  -1.5194022   3.6242756  )
       196        Si     tau( 196) = (  -1.0915321  -1.7688925   3.5431367  )
       197        O      tau( 197) = (  -1.8479203  -1.6612652   3.4316675  )
       198        O      tau( 198) = (  -0.9318594  -1.3559926   3.5173317  )
       199        O      tau( 199) = (  -1.0551331  -1.8690981   3.5087040  )
       200        O      tau( 200) = (  -1.0947417  -1.6840705   3.1875885  )
       201        O      tau( 201) = (  -0.8517275  -1.4310170   3.3712962  )
       202        O      tau( 202) = (  -1.1836456  -1.6104818   3.3372309  )
       203        O      tau( 203) = (  -1.2232376  -1.5988385   3.6934360  )
       204        O      tau( 204) = (  -1.0083845  -1.6943073   3.5171981  )
       205        O      tau( 205) = (  -1.0950552  -1.7679992   3.6573000  )
       206        O      tau( 206) = (  -1.2217082  -1.5421641   3.5186843  )
       207        O      tau( 207) = (  -1.0693694  -1.5088696   3.2335933  )
       208        O      tau( 208) = (  -0.9713079  -1.5306708   3.4641074  )
       209        O      tau( 209) = (  -1.0722981  -1.5167022   3.6353246  )
       210        O      tau( 210) = (  -1.1866545  -1.7356788   3.4943821  )
       211        O      tau( 211) = (  -1.0349469  -1.3756698   3.3688304  )
       212        O      tau( 212) = (  -1.0071030  -1.6507115   3.3392514  )
       213        K      tau( 213) = (  -0.6949849  -1.1755233   3.2373227  )
       214        Al     tau( 214) = (  -0.8401230  -0.8611553   2.9857014  )
       215        Al     tau( 215) = (  -0.9475205  -1.9342467   3.2650425  )
       216        Si     tau( 216) = (  -0.8242232  -1.1058259   3.4463734  )
       217        Si     tau( 217) = (  -1.2299690  -1.9191503   3.2846022  )
       218        Si     tau( 218) = (  -0.9670609  -1.0748589   3.2852757  )
       219        Si     tau( 219) = (  -1.0787858  -1.9572453   3.4356640  )
       220        Si     tau( 220) = (  -0.6981556  -0.9930463   3.0761192  )
       221        Si     tau( 221) = (  -1.0901048  -1.7941605   3.1685353  )
       222        O      tau( 222) = (  -1.4618732  -0.8729976   2.9657243  )
       223        O      tau( 223) = (  -1.3392316  -1.8921922   3.3030988  )
       224        O      tau( 224) = (  -0.9798631  -1.1575173   3.2049718  )
       225        O      tau( 225) = (  -1.0562394  -1.0718117   3.3507735  )
       226        O      tau( 226) = (  -0.9972731  -1.9742538   3.3673998  )
       227        O      tau( 227) = (  -0.6231393  -0.9249102   3.0265909  )
       228        O      tau( 228) = (  -1.1867189  -1.8383462   3.2176906  )
       229        O      tau( 229) = (  -1.0954065  -1.8109654   3.0592870  )
       230        O      tau( 230) = (  -0.6928972  -0.9873595   3.1902491  )
       231        O      tau( 231) = (  -1.0937590  -2.0510556   3.4982006  )
       232        O      tau( 232) = (  -0.9533820  -0.9756684   3.2306989  )
       233        O      tau( 233) = (  -0.7979693  -0.9613643   3.0427219  )
       234        O      tau( 234) = (  -1.0038050  -1.8306339   3.2282831  )
       235        O      tau( 235) = (  -0.8762797  -1.1070917   3.3440495  )
       236        O      tau( 236) = (  -1.1784587  -1.9322977   3.3840428  )
       237        K      tau( 237) = (  -0.9602631  -1.0734236   3.0180468  )
       238        K      tau( 238) = (  -0.5487914  -1.4319524   2.7634921  )
       239        K      tau( 239) = (  -1.0815436  -1.5965237   3.0121911  )
       240        Al     tau( 240) = (  -0.8089893  -1.3971966   3.2625488  )
       241        Al     tau( 241) = (  -0.9648661  -1.3577128   2.9854398  )
       242        Si     tau( 242) = (  -0.8288964  -1.1352074   2.8068920  )
       243        Si     tau( 243) = (  -0.6826482  -1.3744093   2.9609206  )
       244        Si     tau( 244) = (  -0.6818406  -1.1624086   2.9589168  )
       245        Si     tau( 245) = (  -0.8261849  -1.3405710   2.8151745  )
       246        Si     tau( 246) = (  -0.9577878  -1.2646940   3.1693813  )
       247        Si     tau( 247) = (  -0.8221485  -1.4959920   3.0768261  )
       248        O      tau( 248) = (  -1.1957068  -1.3839292   3.2983174  )
       249        O      tau( 249) = (  -1.5783027  -1.4078289   2.9501221  )
       250        O      tau( 250) = (  -0.6712621  -1.0985690   3.0539267  )
       251        O      tau( 251) = (  -0.8300690  -1.6101403   3.0545668  )
       252        O      tau( 252) = (  -0.8581086  -1.4200150   2.7427802  )
       253        O      tau( 253) = (  -0.5999270  -1.1580553   2.8842013  )
       254        O      tau( 254) = (  -0.9110934  -1.3240621   2.8815963  )
       255        O      tau( 255) = (  -1.0491915  -1.3261562   3.2015263  )
       256        O      tau( 256) = (  -0.7334023  -1.4431495   3.0340664  )
       257        O      tau( 257) = (  -0.8068434  -1.4916721   3.1866867  )
       258        O      tau( 258) = (  -0.9644579  -1.2611950   3.0585967  )
       259        O      tau( 259) = (  -0.8022946  -1.2382680   2.7615940  )
       260        O      tau( 260) = (  -0.6873672  -1.2660131   3.0021552  )
       261        O      tau( 261) = (  -0.8559118  -1.2977039   3.2065582  )
       262        O      tau( 262) = (  -0.9183730  -1.4562783   3.0407236  )
       263        O      tau( 263) = (  -0.7788701  -1.1298590   2.9120380  )
       264        O      tau( 264) = (  -0.7255280  -1.3821342   2.8580846  )
       265        H      tau( 265) = (  -1.2853464  -1.4088296   3.7004884  )
       266        H      tau( 266) = (  -1.4010917  -2.1762306   3.6993306  )
       267        H      tau( 267) = (  -0.9625581  -1.1875069   3.6897456  )
       268        H      tau( 268) = (  -1.1545119  -2.0827485   3.5973740  )
       269        H      tau( 269) = (  -1.3102485  -1.9299581   3.7242617  )
       270        H      tau( 270) = (  -1.2806094  -1.6306146   3.6730524  )
       271        H      tau( 271) = (  -1.1291569  -1.7124007   3.6818137  )
       272        H      tau( 272) = (  -1.0325426  -1.5216337   3.5777364  )
       273        H      tau( 273) = (  -0.4171250  -0.5818771   2.5687577  )
       274        H      tau( 274) = (  -0.5924605  -0.5340002   2.5727598  )
       275        H      tau( 275) = (  -0.6083905  -0.6958052   2.6560083  )
       276        H      tau( 276) = (  -0.4040013  -0.8210164   2.5264210  )
       277        H      tau( 277) = (  -0.6183008  -1.3942664   2.5495988  )
       278        H      tau( 278) = (  -0.5433330  -1.1650865   2.5114423  )
       279        H      tau( 279) = (  -0.6922837  -1.0757494   2.5577310  )
       280        H      tau( 280) = (  -0.7498189  -1.2182770   2.6538820  )
       281        O      tau( 281) = (  -1.5594218  -2.1969379   4.1869710  )
       282        H      tau( 282) = (  -1.5812588  -2.1354999   4.2019274  )
       283        H      tau( 283) = (  -1.5901079  -2.2048301   4.1259874  )
       284        O      tau( 284) = (  -1.9526255  -2.0343684   4.1317596  )
       285        H      tau( 285) = (  -2.0060172  -2.0739477   4.1291935  )
       286        H      tau( 286) = (  -1.9052893  -2.0596392   4.1801690  )
       287        O      tau( 287) = (  -1.4670972  -1.7900135   4.1226143  )
       288        H      tau( 288) = (  -1.4332033  -1.7497816   4.0801829  )
       289        H      tau( 289) = (  -1.4201893  -1.8048989   4.1654742  )
       290        O      tau( 290) = (  -1.3208074  -1.5205235   4.1229872  )
       291        H      tau( 291) = (  -1.2861394  -1.4743505   4.0866175  )
       292        H      tau( 292) = (  -1.3812211  -1.4956326   4.1110254  )
       293        O      tau( 293) = (  -1.4700788  -1.9568038   4.0194331  )
       294        H      tau( 294) = (  -1.4780436  -1.9020710   4.0629276  )
       295        H      tau( 295) = (  -1.4825938  -1.9262806   3.9603977  )
       296        O      tau( 296) = (  -2.1920824  -1.5851740   4.2458115  )
       297        H      tau( 297) = (  -1.2469024  -1.5796392   4.2090244  )
       298        H      tau( 298) = (  -2.1832539  -1.5194393   4.2614137  )
       299        O      tau( 299) = (  -1.6169312  -1.7392717   4.2081393  )
       300        H      tau( 300) = (  -1.6646337  -1.7144585   4.1702111  )
       301        H      tau( 301) = (  -1.5616216  -1.7449557   4.1736399  )
       302        O      tau( 302) = (  -1.3860815  -1.6850529   3.6693398  )
       303        H      tau( 303) = (  -1.4036469  -1.6822776   3.7374091  )
       304        H      tau( 304) = (  -1.4468362  -1.6742417   3.6450543  )
       305        O      tau( 305) = (  -1.4227260  -1.6887666   3.8573279  )
       306        H      tau( 306) = (  -1.4802555  -1.6671361   3.8883151  )
       307        H      tau( 307) = (  -1.4324314  -1.7539883   3.8430005  )
       308        O      tau( 308) = (  -1.5731417  -1.6270490   3.9451630  )
       309        H      tau( 309) = (  -1.5543083  -1.5821591   3.9912458  )
       310        H      tau( 310) = (  -1.6133332  -1.6694885   3.9769628  )
       311        O      tau( 311) = (  -2.0426516  -1.6114183   4.1134189  )
       312        H      tau( 312) = (  -2.0876197  -1.5925480   4.1599135  )
       313        H      tau( 313) = (  -2.0714515  -1.6578265   4.0750954  )
       314        O      tau( 314) = (  -1.0068297  -1.4524759   3.8659890  )
       315        H      tau( 315) = (  -1.9632563  -1.4927254   3.8308383  )
       316        H      tau( 316) = (  -1.9752781  -1.4359368   3.9230539  )
       317        O      tau( 317) = (  -2.1387642  -2.3036933   4.1856629  )
       318        H      tau( 318) = (  -2.1369958  -2.2385432   4.1835366  )
       319        H      tau( 319) = (  -2.1155269  -2.3187536   4.2520123  )
       320        O      tau( 320) = (  -1.3704590  -2.1569126   4.1354500  )
       321        H      tau( 321) = (  -1.3516031  -2.1416220   4.1982648  )
       322        H      tau( 322) = (  -1.4372635  -2.1767023   4.1424746  )
       323        O      tau( 323) = (  -1.5122332  -1.4706471   3.8289346  )
       324        H      tau( 324) = (  -1.5144556  -1.5103617   3.7741852  )
       325        H      tau( 325) = (  -1.4599605  -1.4256245   3.8134215  )
       326        O      tau( 326) = (  -1.1617065  -1.5541554   3.9004383  )
       327        H      tau( 327) = (  -1.1016604  -1.5201960   3.9010506  )
       328        H      tau( 328) = (  -1.1970381  -1.5381733   3.8464849  )
       329        O      tau( 329) = (  -2.1010851  -2.2996432   4.3791950  )
       330        H      tau( 330) = (  -2.1231154  -2.3487223   4.4163106  )
       331        H      tau( 331) = (  -2.0532515  -2.2747900   4.4100709  )
       332        O      tau( 332) = (  -1.4045986  -1.9623039   4.3952035  )
       333        H      tau( 333) = (  -1.4557954  -1.9271127   4.3685914  )
       334        H      tau( 334) = (  -1.3575600  -1.9185440   4.3726213  )
       335        O      tau( 335) = (  -1.6293659  -2.0513511   4.0131489  )
       336        H      tau( 336) = (  -1.6756264  -2.0127665   3.9899711  )
       337        H      tau( 337) = (  -1.5767604  -2.0109058   4.0060185  )
       338        O      tau( 338) = (  -1.7929919  -2.4452687   4.3139867  )
       339        H      tau( 339) = (  -1.7355275  -2.4541522   4.3469610  )
       340        H      tau( 340) = (  -1.8125075  -2.5059210   4.2900797  )
       341        O      tau( 341) = (  -2.1837803  -1.9931299   4.2613079  )
       342        H      tau( 342) = (  -2.2375647  -1.9642541   4.2385643  )
       343        H      tau( 343) = (  -2.1415971  -1.9450365   4.2743496  )
       344        O      tau( 344) = (  -1.2944364  -2.1123657   3.9691868  )
       345        H      tau( 345) = (  -1.3124364  -2.1328336   4.0283001  )
       346        H      tau( 346) = (  -1.2828989  -2.1725187   3.9428864  )
       347        O      tau( 347) = (  -1.8423632  -1.7983042   4.3267500  )
       348        H      tau( 348) = (  -1.8774780  -1.8280820   4.2777561  )
       349        H      tau( 349) = (  -1.7776538  -1.8060184   4.3111256  )
       350        O      tau( 350) = (  -1.7304512  -1.4813761   4.0223944  )
       351        H      tau( 351) = (  -1.7114472  -1.4247099   4.0504815  )
       352        H      tau( 352) = (  -1.7137581  -1.4658941   3.9591954  )
       353        O      tau( 353) = (  -1.2570804  -2.2933558   3.9508962  )
       354        H      tau( 354) = (  -2.2752284  -2.3293364   4.0050389  )
       355        H      tau( 355) = (  -1.3013075  -2.3044787   3.9012343  )
       356        O      tau( 356) = (  -1.8066982  -1.7810295   3.9773525  )
       357        H      tau( 357) = (  -1.7799131  -1.7277796   4.0024617  )
       358        H      tau( 358) = (  -1.8560912  -1.7600652   3.9326056  )
       359        O      tau( 359) = (  -1.4645742  -2.0657583   3.8320962  )
       360        H      tau( 360) = (  -1.4165046  -2.0877209   3.7904386  )
       361        H      tau( 361) = (  -1.4346234  -2.0495571   3.8881481  )
       362        O      tau( 362) = (  -1.2263007  -1.2119577   3.6718947  )
       363        H      tau( 363) = (  -1.2104137  -1.2706759   3.6959742  )
       364        H      tau( 364) = (  -1.2753167  -1.1936119   3.7142314  )
       365        O      tau( 365) = (  -2.3412048  -2.1155945   4.3181781  )
       366        H      tau( 366) = (  -2.2782656  -2.0999513   4.3321604  )
       367        H      tau( 367) = (  -1.3695999  -2.0585580   4.3387954  )
       368        O      tau( 368) = (  -1.2397612  -1.8403887   4.0141842  )
       369        H      tau( 369) = (  -1.2567043  -1.8880184   3.9608876  )
       370        H      tau( 370) = (  -1.2862911  -1.7927955   4.0150302  )
       371        O      tau( 371) = (  -1.6161666  -1.5342456   4.2276601  )
       372        H      tau( 372) = (  -1.6777879  -1.5137962   4.2399893  )
       373        H      tau( 373) = (  -1.6141283  -1.6003387   4.2151138  )
       374        O      tau( 374) = (  -2.0442747  -2.5234233   4.2730638  )
       375        H      tau( 375) = (  -1.8057844  -1.5401128   4.2612077  )
       376        H      tau( 376) = (  -2.0817993  -2.4936124   4.3216736  )
       377        O      tau( 377) = (  -2.3160827  -2.3612559   4.1237665  )
       378        H      tau( 378) = (  -1.3359560  -2.2963699   4.1382442  )
       379        H      tau( 379) = (  -2.2478075  -2.3544589   4.1346150  )
       380        O      tau( 380) = (  -1.8207461  -2.1843350   3.8624433  )
       381        H      tau( 381) = (  -1.7531640  -2.1771608   3.8659110  )
       382        H      tau( 382) = (  -1.8445527  -2.1369366   3.8188820  )
       383        O      tau( 383) = (  -1.2962715  -1.8636856   4.2056568  )
       384        H      tau( 384) = (  -1.2899104  -1.8835965   4.1421795  )
       385        H      tau( 385) = (  -2.2403481  -1.8227280   4.2169674  )
       386        O      tau( 386) = (  -1.2474958  -1.2958765   3.9095280  )
       387        H      tau( 387) = (  -1.2310144  -1.3507119   3.9417509  )
       388        H      tau( 388) = (  -1.1938780  -1.2858388   3.8687331  )
       389        O      tau( 389) = (  -1.4959112  -1.8677700   3.8348626  )
       390        H      tau( 390) = (  -1.4900797  -1.9311964   3.8096421  )
       391        H      tau( 391) = (  -1.5630910  -1.8535022   3.8298363  )
       392        O      tau( 392) = (  -1.6866019  -1.8478542   3.8542832  )
       393        H      tau( 393) = (  -1.7301320  -1.8294320   3.9005218  )
       394        H      tau( 394) = (  -1.7126201  -1.8407596   3.7924647  )
       395        O      tau( 395) = (  -1.9149253  -1.5834858   3.7530335  )
       396        H      tau( 396) = (  -1.9546492  -1.5626582   3.7032437  )
       397        H      tau( 397) = (  -1.9367806  -1.6458397   3.7683574  )
       398        O      tau( 398) = (  -1.8061299  -1.9726394   3.9894701  )
       399        H      tau( 399) = (  -1.8153709  -1.9060712   4.0043542  )
       400        H      tau( 400) = (  -1.8575457  -2.0056189   4.0216819  )
       401        O      tau( 401) = (  -2.1206943  -2.1064608   4.1137417  )
       402        H      tau( 402) = (  -2.1523004  -2.0620375   4.1515698  )
       403        H      tau( 403) = (  -2.1492944  -2.1070864   4.0516004  )
       404        O      tau( 404) = (  -1.4380297  -2.2851673   4.3188293  )
       405        H      tau( 405) = (  -1.4832496  -2.2654754   4.2747615  )
       406        H      tau( 406) = (  -1.4088161  -2.2310581   4.3446399  )
       407        O      tau( 407) = (  -1.9391663  -1.7447461   3.8558529  )
       408        H      tau( 408) = (  -1.9932142  -1.7503047   3.9008280  )
       409        H      tau( 409) = (  -1.9374989  -1.8116227   3.8388926  )
       410        O      tau( 410) = (  -2.1943342  -2.4715406   4.3861472  )
       411        H      tau( 411) = (  -2.2443433  -2.4717223   4.3423355  )
       412        H      tau( 412) = (  -2.2251710  -2.4760277   4.4452717  )
       413        O      tau( 413) = (  -1.6822803  -1.4288124   3.8476650  )
       414        H      tau( 414) = (  -1.6161186  -1.4494240   3.8502310  )
       415        H      tau( 415) = (  -1.6807868  -1.3622833   3.8674195  )
       416        O      tau( 416) = (  -1.3462466  -1.6895931   4.0285228  )
       417        H      tau( 417) = (  -1.3739043  -1.6697908   3.9694707  )
       418        H      tau( 418) = (  -1.3443134  -1.6316107   4.0680096  )
       419        O      tau( 419) = (  -1.8999303  -1.9398608   3.8169672  )
       420        H      tau( 420) = (  -1.9487611  -1.9879112   3.8130375  )
       421        H      tau( 421) = (  -1.8608936  -1.9715196   3.8611297  )
       422        O      tau( 422) = (  -1.6429071  -2.0257645   4.2033078  )
       423        H      tau( 423) = (  -1.6301997  -1.9743888   4.2447874  )
       424        H      tau( 424) = (  -1.6341459  -2.0008154   4.1441222  )
       425        O      tau( 425) = (  -1.7469439  -1.2379925   3.7006943  )
       426        H      tau( 426) = (  -1.6863794  -1.2322212   3.7282416  )
       427        H      tau( 427) = (  -1.7732939  -1.2911804   3.7271061  )
       428        O      tau( 428) = (  -1.9490445  -2.2966017   3.9109307  )
       429        H      tau( 429) = (  -1.9524063  -2.3036433   3.9774248  )
       430        H      tau( 430) = (  -1.8927614  -2.2543948   3.8961969  )
       431        O      tau( 431) = (  -1.9624150  -1.8533938   4.1759498  )
       432        H      tau( 432) = (  -1.9610932  -1.9191107   4.1490483  )
       433        H      tau( 433) = (  -1.9348641  -1.8148106   4.1302901  )
       434        O      tau( 434) = (  -1.6406969  -2.2340686   4.0232850  )
       435        H      tau( 435) = (  -1.5875101  -2.2661729   3.9926818  )
       436        H      tau( 436) = (  -1.6315982  -2.1677503   3.9988214  )
       437        O      tau( 437) = (  -1.5096717  -1.5043675   4.0742994  )
       438        H      tau( 438) = (  -1.5153119  -1.4402723   4.0578178  )
       439        H      tau( 439) = (  -1.5573491  -1.5085169   4.1249020  )
       440        O      tau( 440) = (  -2.0884275  -1.7342298   3.9722928  )
       441        H      tau( 441) = (  -1.1105799  -1.6838202   3.9330342  )
       442        H      tau( 442) = (  -1.1426833  -1.7767749   3.9783265  )
       443        O      tau( 443) = (  -1.9823023  -2.3472104   4.0855042  )
       444        H      tau( 444) = (  -1.9314370  -2.3378212   4.1266999  )
       445        H      tau( 445) = (  -2.0411564  -2.3245153   4.1176325  )
       446        O      tau( 446) = (  -2.3838147  -2.4698924   4.2882373  )
       447        H      tau( 447) = (  -2.3636861  -2.4373120   4.2329536  )
       448        H      tau( 448) = (  -2.4168295  -2.4230258   4.3195306  )
       449        O      tau( 449) = (  -1.8345782  -2.3072855   4.2071931  )
       450        H      tau( 450) = (  -1.8201873  -2.3650474   4.2450712  )
       451        H      tau( 451) = (  -1.7896409  -2.3049851   4.1572195  )
       452        O      tau( 452) = (  -1.7349856  -1.6483429   4.0915046  )
       453        H      tau( 453) = (  -1.7167147  -1.5851767   4.0737484  )
       454        H      tau( 454) = (  -1.7984502  -1.6367563   4.1140033  )
       455        O      tau( 455) = (  -1.2538140  -1.9631409   3.8671523  )
       456        H      tau( 456) = (  -1.1891116  -1.9650422   3.8497634  )
       457        H      tau( 457) = (  -1.2625478  -2.0219132   3.9012900  )
       458        O      tau( 458) = (  -2.0941956  -2.1829567   3.9006109  )
       459        H      tau( 459) = (  -2.0402130  -2.2218840   3.9114762  )
       460        H      tau( 460) = (  -2.1448168  -2.2273370   3.9093777  )
       461        O      tau( 461) = (  -1.8811745  -1.6271064   4.2030908  )
       462        H      tau( 462) = (  -1.9447382  -1.6273609   4.1771299  )
       463        H      tau( 463) = (  -1.8819058  -1.6732475   4.2586584  )
       464        O      tau( 464) = (  -1.0878540  -1.3021814   3.7911845  )
       465        H      tau( 465) = (  -1.0606935  -1.3664952   3.8058069  )
       466        H      tau( 466) = (  -1.0478729  -1.2870972   3.7376875  )
       467        O      tau( 467) = (  -2.0785877  -2.0386071   3.8030851  )
       468        H      tau( 468) = (  -1.1116938  -2.0682184   3.7484859  )
       469        H      tau( 469) = (  -2.0899166  -2.0877077   3.8506039  )
       470        O      tau( 470) = (  -1.7751909  -2.3703024   4.0085066  )
       471        H      tau( 471) = (  -1.7394221  -2.3183711   3.9924703  )
       472        H      tau( 472) = (  -1.5708287  -1.3163973   3.9788331  )
       473        O      tau( 473) = (  -1.5775699  -1.8968010   4.3191076  )
       474        H      tau( 474) = (  -1.5892928  -1.8942640   4.3853457  )
       475        H      tau( 475) = (  -1.5817704  -1.8350236   4.2875749  )
       476        O      tau( 476) = (  -1.9413370  -1.4535336   4.0430339  )
       477        H      tau( 477) = (  -1.8753872  -1.4445415   4.0489230  )
       478        H      tau( 478) = (  -1.9502775  -1.5180298   4.0560867  )
       479        O      tau( 479) = (  -1.3684676  -1.3586530   3.7599579  )
       480        H      tau( 480) = (  -1.3977386  -1.3063484   3.7285143  )
       481        H      tau( 481) = (  -1.3421328  -1.3302633   3.8185926  )
       482        O      tau( 482) = (  -2.1326750  -1.7861895   4.2599776  )
       483        H      tau( 483) = (  -2.1384841  -1.7184003   4.2689448  )
       484        H      tau( 484) = (  -2.0660881  -1.7896886   4.2457781  )
       485        O      tau( 485) = (  -1.8271449  -2.0821669   4.2637292  )
       486        H      tau( 486) = (  -1.7722708  -2.0716361   4.2256896  )
       487        H      tau( 487) = (  -1.8293950  -2.1518888   4.2757411  )
       488        O      tau( 488) = (  -1.6124590  -2.1791763   3.7915574  )
       489        H      tau( 489) = (  -1.5590989  -2.1482901   3.8223943  )
       490        H      tau( 490) = (  -1.6326705  -2.1347791   3.7464543  )
       491        O      tau( 491) = (  -1.1871019  -1.4204333   4.0301592  )
       492        H      tau( 492) = (  -1.1749958  -1.4812057   4.0005358  )
       493        H      tau( 493) = (  -1.1390786  -1.4016912   4.0739320  )

     number of k points=     1
                       cart. coord. in units 2pi/alat
        k(    1) = (   0.0000000   0.0000000   0.0000000), wk =   2.0000000

     Dense  grid:  3184389 G-vectors     FFT dimensions: ( 192, 200, 480)

     Estimated max dynamical RAM per process >     493.86 MB

     Estimated total dynamical RAM >      57.87 GB

     WARNING: libxc functional with ID  263 depends
      on external parameters: check the user_guide of
      QE if you need to modify them or to check their
      default values.

     Initial potential from superposition of free atoms

     starting charge    2103.6163, renormalised to    2104.0000
     Starting wfcs are 1530 randomized atomic wfcs

     total cpu time spent up to now is       34.4 secs

     Self-consistent Calculation

     iteration #  1     ecut=   110.00 Ry     beta= 0.50
     Davidson diagonalization with overlap
     ethr =  1.00E-02,  avg # of iterations =  3.0

     total cpu time spent up to now is      110.4 secs

     total energy              =  -11160.05398871 Ry
     estimated scf accuracy    <    4095.08916565 Ry

     iteration #  2     ecut=   110.00 Ry     beta= 0.50
     Davidson diagonalization with overlap
     ethr =  1.00E-02,  avg # of iterations =  2.0

     total cpu time spent up to now is      175.1 secs

     total energy              =  -11179.70330400 Ry
     estimated scf accuracy    <     543.32679540 Ry

     iteration #  3     ecut=   110.00 Ry     beta= 0.50
     Davidson diagonalization with overlap
     ethr =  1.00E-02,  avg # of iterations =  1.0

     total cpu time spent up to now is      227.8 secs

     total energy              =  -11181.31250131 Ry
     estimated scf accuracy    <      49.85769766 Ry

     iteration #  4     ecut=   110.00 Ry     beta= 0.50
     Davidson diagonalization with overlap
     ethr =  2.37E-03,  avg # of iterations =  1.0

     total cpu time spent up to now is      280.7 secs

     total energy              =  -11181.45371083 Ry
     estimated scf accuracy    <       0.82222645 Ry

     iteration #  5     ecut=   110.00 Ry     beta= 0.50
     Davidson diagonalization with overlap
     ethr =  3.91E-05,  avg # of iterations =  2.0

     total cpu time spent up to now is      336.0 secs

     total energy              =  -11181.49100653 Ry
     estimated scf accuracy    <       0.03351096 Ry

     iteration #  6     ecut=   110.00 Ry     beta= 0.50
     Davidson diagonalization with overlap
     ethr =  1.59E-06,  avg # of iterations =  3.0

     total cpu time spent up to now is      406.6 secs

     total energy              =  -11181.49745299 Ry
     estimated scf accuracy    <       0.00492760 Ry

     iteration #  7     ecut=   110.00 Ry     beta= 0.50
     Davidson diagonalization with overlap
     ethr =  2.34E-07,  avg # of iterations =  3.0

     total cpu time spent up to now is      474.2 secs

     total energy              =  -11181.49811101 Ry
     estimated scf accuracy    <       0.00231283 Ry

     iteration #  8     ecut=   110.00 Ry     beta= 0.50
     Davidson diagonalization with overlap
     ethr =  1.10E-07,  avg # of iterations =  2.0

     total cpu time spent up to now is      535.1 secs

     total energy              =  -11181.49829779 Ry
     estimated scf accuracy    <       0.00052832 Ry

     iteration #  9     ecut=   110.00 Ry     beta= 0.50
     Davidson diagonalization with overlap
     ethr =  2.51E-08,  avg # of iterations =  2.0

     total cpu time spent up to now is      596.4 secs

     total energy              =  -11181.49833873 Ry
     estimated scf accuracy    <       0.00007342 Ry

     iteration # 10     ecut=   110.00 Ry     beta= 0.50
     Davidson diagonalization with overlap
     ethr =  3.49E-09,  avg # of iterations =  2.0

     total cpu time spent up to now is      654.5 secs

     total energy              =  -11181.49834448 Ry
     estimated scf accuracy    <       0.00000558 Ry

     iteration # 11     ecut=   110.00 Ry     beta= 0.50
     Davidson diagonalization with overlap
     ethr =  2.65E-10,  avg # of iterations =  5.0

     total cpu time spent up to now is      735.1 secs

     total energy              =  -11181.49834614 Ry
     estimated scf accuracy    <       0.00000493 Ry

     iteration # 12     ecut=   110.00 Ry     beta= 0.50
     Davidson diagonalization with overlap
     ethr =  2.34E-10,  avg # of iterations =  1.0

     total cpu time spent up to now is      788.0 secs

     End of self-consistent calculation

          k = 0.0000 0.0000 0.0000 (398025 PWs)   bands (ev):

  -104.2177-104.0262-103.9505-103.8791-103.8569-103.8090-103.6214-103.6175
  -103.4883-103.4529-103.4290-103.3939-103.3612-103.3566-103.3005-103.2625
   -63.7906 -63.7624 -63.6842 -63.5697 -63.5374 -63.5365 -63.5085 -63.4571
   -63.4421 -63.4357 -63.4342 -63.3967 -63.3836 -63.3817 -63.3674 -63.3653
   -63.3493 -63.3386 -63.2112 -63.1935 -63.1585 -63.1440 -63.1181 -63.0946
   -63.0873 -63.0463 -63.0426 -63.0200 -63.0031 -62.9985 -62.9964 -62.9848
   -62.9757 -62.9648 -62.9634 -62.9620 -62.9439 -62.9385 -62.9370 -62.9075
   -62.8968 -62.8915 -62.8640 -62.8588 -62.8528 -62.8143 -62.8103 -62.7866
   -29.3997 -29.3401 -29.2955 -29.1913 -29.1490 -29.1040 -29.0573 -29.0209
   -29.0108 -28.9259 -28.6948 -28.6332 -28.6111 -28.4827 -28.4629 -28.4306
   -28.3797 -22.1977 -21.7543 -21.3905 -21.3631 -21.2575 -21.2266 -21.2087
   -21.1549 -21.1002 -21.0675 -21.0575 -21.0513 -21.0179 -20.9839 -20.9335
   -20.9284 -20.8890 -20.8730 -20.8454 -20.8085 -20.7695 -20.7505 -20.7442
   -20.7235 -20.6649 -20.6458 -20.6208 -20.5899 -20.5581 -20.5513 -20.5130
   -20.5049 -20.4798 -20.4765 -20.4661 -20.4527 -20.4454 -20.4136 -20.3931
   -20.3857 -20.3625 -20.3467 -20.3236 -20.3142 -20.2941 -20.2894 -20.2812
   -20.2782 -20.2622 -20.2464 -20.2405 -20.2237 -20.1919 -20.1904 -20.1711
   -20.1517 -20.1483 -20.1337 -20.1274 -20.1069 -20.0994 -20.0977 -20.0871
   -20.0595 -20.0498 -20.0368 -20.0232 -20.0201 -20.0072 -19.9845 -19.9635
   -19.9607 -19.9528 -19.9444 -19.9425 -19.9277 -19.9214 -19.9024 -19.8913
   -19.8759 -19.8621 -19.8550 -19.8426 -19.8386 -19.8321 -19.8206 -19.8191
   -19.8120 -19.7921 -19.7788 -19.7659 -19.7535 -19.7300 -19.7237 -19.7082
   -19.7001 -19.6961 -19.6891 -19.6878 -19.6771 -19.6707 -19.6620 -19.6464
   -19.6340 -19.6255 -19.6223 -19.5956 -19.5905 -19.5777 -19.5613 -19.5535
   -19.5445 -19.5343 -19.5282 -19.5111 -19.5058 -19.4945 -19.4924 -19.4893
   -19.4786 -19.4755 -19.4603 -19.4504 -19.4440 -19.4409 -19.4351 -19.4267
   -19.4238 -19.4197 -19.3999 -19.3876 -19.3584 -19.3479 -19.3429 -19.3372
   -19.3309 -19.3189 -19.3150 -19.3050 -19.2885 -19.2853 -19.2796 -19.2715
   -19.2675 -19.2646 -19.2532 -19.2461 -19.2419 -19.2234 -19.2204 -19.2098
   -19.2035 -19.1971 -19.1912 -19.1805 -19.1757 -19.1697 -19.1620 -19.1436
   -19.1395 -19.1310 -19.0961 -19.0919 -19.0688 -19.0561 -19.0208 -19.0092
   -19.0027 -18.9536 -18.9310 -18.9227 -18.9136 -18.8946 -18.8827 -18.8642
   -18.8577 -18.8482 -18.8380 -18.8324 -18.8221 -18.8157 -18.8081 -18.8080
   -18.7790 -18.7474 -18.7237 -18.7157 -18.7065 -18.6980 -18.6860 -18.6772
   -18.6672 -18.6570 -18.6438 -18.6353 -18.6204 -18.5901 -18.5787 -18.5698
   -18.5510 -18.5455 -18.5170 -18.5041 -18.5003 -18.4952 -18.4946 -18.4918
   -18.4783 -18.4706 -18.4489 -18.4322 -18.4297 -18.4133 -18.3996 -18.3985
   -18.3853 -18.3767 -18.3214 -18.2941 -18.2911 -18.2701 -18.2144 -18.2085
   -18.1238 -18.0474 -17.9945 -17.9353 -17.9091 -17.8641 -17.8030 -12.9977
   -11.9475 -11.9176 -11.9122 -11.8758 -11.8458 -11.8188 -11.7710 -11.7347
   -11.7283 -11.6900 -11.6873 -11.6680 -11.6494 -11.6435 -11.6420 -11.6382
   -11.6222 -11.6106 -11.6083 -11.5738 -11.5678 -11.5646 -11.5366 -11.5250
   -11.4972 -11.4884 -11.4372 -11.2886 -11.2363 -11.2294 -11.2190 -11.1816
   -11.1815 -11.1554 -11.1456 -11.1191 -11.0923 -11.0826 -11.0797 -11.0637
   -11.0228 -11.0113 -10.9823 -10.9815 -10.9668 -10.9570 -10.9171 -10.8929
    -9.8586  -9.5578  -9.4225  -9.4128  -9.2733  -9.1309  -9.0998  -9.0418
    -9.0284  -8.9962  -8.9449  -8.8683  -8.8582  -8.7638  -8.6453  -8.5828
    -8.5605  -8.5382  -8.4753  -8.3841  -8.3619  -8.2945  -8.2768  -8.2396
    -8.2266  -8.2095  -8.1930  -8.1038  -8.0896  -8.0553  -7.9645  -7.9468
    -7.9430  -7.8823  -7.8032  -7.7814  -7.7271  -7.6208  -7.5456  -7.5290
    -7.5042  -7.4844  -7.4736  -7.4111  -7.3539  -7.3315  -7.3045  -7.2389
    -7.2132  -7.1815  -7.1279  -7.1109  -7.1066  -7.0970  -7.0666  -7.0452
    -7.0070  -7.0028  -6.9948  -6.9836  -6.9529  -6.9450  -6.9223  -6.9160
    -6.9030  -6.8989  -6.8678  -6.8597  -6.8536  -6.8404  -6.8248  -6.8165
    -6.7790  -6.7749  -6.7702  -6.7427  -6.7284  -6.7158  -6.7127  -6.6866
    -6.6851  -6.6641  -6.6565  -6.6310  -6.6243  -6.5931  -6.5893  -6.5831
    -6.5650  -6.5555  -6.5487  -6.5381  -6.5186  -6.5185  -6.5090  -6.4965
    -6.4824  -6.4814  -6.4584  -6.4472  -6.4413  -6.4273  -6.4052  -6.3911
    -6.3886  -6.3762  -6.3718  -6.3546  -6.3321  -6.3273  -6.3252  -6.3118
    -6.3079  -6.3012  -6.2995  -6.2967  -6.2913  -6.2858  -6.2664  -6.2508
    -6.2413  -6.2361  -6.2189  -6.2071  -6.1977  -6.1794  -6.1735  -6.1476
    -6.1407  -6.1385  -6.1307  -6.0999  -6.0904  -6.0853  -6.0638  -6.0586
    -6.0451  -6.0339  -6.0281  -6.0170  -5.9973  -5.9887  -5.9631  -5.9596
    -5.9461  -5.9355  -5.9167  -5.9057  -5.8899  -5.8677  -5.8562  -5.8512
    -5.8367  -5.8263  -5.8215  -5.8102  -5.8089  -5.7941  -5.7901  -5.7825
    -5.7700  -5.7593  -5.7484  -5.7403  -5.7284  -5.7102  -5.6747  -5.6571
    -5.6308  -5.6219  -5.6173  -5.6006  -5.5799  -5.5539  -5.5473  -5.5245
    -5.5186  -5.5122  -5.5003  -5.3819  -5.3752  -5.3499  -5.3150  -5.3079
    -5.2753  -5.2631  -5.2364  -5.2253  -5.2100  -5.1969  -5.1603  -5.1501
    -5.1224  -5.1025  -5.0707  -5.0586  -5.0445  -5.0299  -5.0121  -4.9785
    -4.9517  -4.9219  -4.9183  -4.8873  -4.8822  -4.8551  -4.8301  -4.8133
    -4.8075  -4.7947  -4.7920  -4.7792  -4.7471  -4.7410  -4.7357  -4.7099
    -4.6710  -4.6271  -4.6209  -4.6127  -4.5736  -4.5620  -4.5611  -4.5458
    -4.5393  -4.5025  -4.4971  -4.4892  -4.4496  -4.4194  -4.3976  -4.3803
    -4.3712  -4.3488  -4.3239  -4.3195  -4.2987  -4.2758  -4.2632  -4.2502
    -4.2282  -4.1888  -4.1667  -4.1463  -4.1400  -4.1367  -4.1174  -4.1049
    -4.0753  -4.0574  -4.0464  -4.0311  -4.0230  -4.0211  -4.0016  -3.9983
    -3.9657  -3.9384  -3.9301  -3.9140  -3.9064  -3.8922  -3.8785  -3.8582
    -3.8337  -3.8267  -3.8194  -3.7977  -3.7835  -3.7763  -3.7703  -3.7522
    -3.7474  -3.7376  -3.7359  -3.7228  -3.6945  -3.6891  -3.6649  -3.6307
    -3.6257  -3.6196  -3.6090  -3.5903  -3.5765  -3.5674  -3.5558  -3.5436
    -3.5402  -3.5264  -3.5153  -3.5108  -3.4896  -3.4692  -3.4593  -3.4575
    -3.4405  -3.4319  -3.4218  -3.4137  -3.4069  -3.3917  -3.3901  -3.3683
    -3.3608  -3.3581  -3.3432  -3.3301  -3.3189  -3.3087  -3.3050  -3.3026
    -3.2903  -3.2873  -3.2763  -3.2700  -3.2602  -3.2480  -3.2415  -3.2364
    -3.2323  -3.2270  -3.2198  -3.2123  -3.1951  -3.1837  -3.1569  -3.1543
    -3.1445  -3.1299  -3.1257  -3.1224  -3.1184  -3.1083  -3.1064  -3.0968
    -3.0778  -3.0733  -3.0634  -3.0551  -3.0492  -3.0347  -3.0221  -3.0208
    -3.0135  -3.0069  -3.0048  -2.9980  -2.9874  -2.9770  -2.9509  -2.9419
    -2.9374  -2.9334  -2.9299  -2.9236  -2.9142  -2.9089  -2.8981  -2.8888
    -2.8872  -2.8762  -2.8733  -2.8587  -2.8465  -2.8383  -2.8336  -2.8274
    -2.8194  -2.8120  -2.8054  -2.7953  -2.7857  -2.7760  -2.7686  -2.7657
    -2.7559  -2.7467  -2.7454  -2.7295  -2.7279  -2.7156  -2.7003  -2.6989
    -2.6869  -2.6828  -2.6660  -2.6517  -2.6323  -2.6293  -2.6128  -2.6027
    -2.5970  -2.5953  -2.5908  -2.5797  -2.5698  -2.5637  -2.5544  -2.5504
    -2.5355  -2.5333  -2.5265  -2.5189  -2.5105  -2.5061  -2.4921  -2.4716
    -2.4601  -2.4534  -2.4479  -2.4401  -2.4333  -2.4209  -2.4061  -2.3957
    -2.3822  -2.3783  -2.3739  -2.3641  -2.3640  -2.3383  -2.3267  -2.3148
    -2.3094  -2.2987  -2.2881  -2.2876  -2.2785  -2.2690  -2.2674  -2.2602
    -2.2377  -2.2222  -2.2165  -2.2125  -2.2044  -2.1928  -2.1877  -2.1794
    -2.1782  -2.1718  -2.1658  -2.1614  -2.1549  -2.1505  -2.1477  -2.1372
    -2.1304  -2.1260  -2.1064  -2.1024  -2.0900  -2.0815  -2.0775  -2.0757
    -2.0692  -2.0639  -2.0626  -2.0474  -2.0428  -2.0278  -2.0177  -2.0162
    -2.0017  -1.9967  -1.9874  -1.9837  -1.9694  -1.9650  -1.9562  -1.9441
    -1.9380  -1.9261  -1.9203  -1.9083  -1.9044  -1.8968  -1.8863  -1.8796
    -1.8663  -1.8551  -1.8444  -1.8377  -1.8327  -1.8194  -1.8075  -1.8021
    -1.7980  -1.7877  -1.7742  -1.7673  -1.7619  -1.7540  -1.7449  -1.7395
    -1.7281  -1.7241  -1.7061  -1.7034  -1.6995  -1.6904  -1.6884  -1.6798
    -1.6733  -1.6642  -1.6612  -1.6525  -1.6470  -1.6427  -1.6300  -1.6228
    -1.6186  -1.6040  -1.6013  -1.5914  -1.5836  -1.5745  -1.5512  -1.5467
    -1.5445  -1.5281  -1.5117  -1.5048  -1.5019  -1.4972  -1.4902  -1.4817
    -1.4738  -1.4622  -1.4572  -1.4521  -1.4443  -1.4414  -1.4358  -1.4251
    -1.4205  -1.4134  -1.4067  -1.4014  -1.3938  -1.3831  -1.3719  -1.3684
    -1.3541  -1.3481  -1.3392  -1.3340  -1.3286  -1.3210  -1.3135  -1.3083
    -1.3005  -1.2764  -1.2719  -1.2620  -1.2525  -1.2508  -1.2256  -1.2204
    -1.2101  -1.1887  -1.1784  -1.1747  -1.1661  -1.1581  -1.1561  -1.1530
    -1.1433  -1.1377  -1.1341  -1.1310  -1.1251  -1.1157  -1.1124  -1.1037
    -1.1007  -1.0952  -1.0881  -1.0866  -1.0830  -1.0761  -1.0631  -1.0537
    -1.0471  -1.0409  -1.0316  -1.0253  -1.0134  -1.0032  -0.9865  -0.9772
    -0.9701  -0.9562  -0.9477  -0.9370  -0.9342  -0.9267  -0.9234  -0.9207
    -0.9179  -0.9026  -0.8965  -0.8888  -0.8855  -0.8760  -0.8659  -0.8592
    -0.8520  -0.8464  -0.8318  -0.8166  -0.8125  -0.8065  -0.7978  -0.7874
    -0.7844  -0.7772  -0.7725  -0.7606  -0.7548  -0.7524  -0.7397  -0.7339
    -0.7246  -0.7174  -0.7038  -0.7000  -0.6954  -0.6918  -0.6803  -0.6757
    -0.6661  -0.6637  -0.6499  -0.6482  -0.6430  -0.6380  -0.6300  -0.6217
    -0.6081  -0.5979  -0.5923  -0.5842  -0.5699  -0.5655  -0.5561  -0.5544
    -0.5444  -0.5320  -0.5217  -0.5139  -0.4984  -0.4859  -0.4739  -0.4735
    -0.4634  -0.4602  -0.4467  -0.4416  -0.4148  -0.3958  -0.3874  -0.3799
    -0.3720  -0.3586  -0.3471  -0.3249  -0.3135  -0.3051  -0.2959  -0.2895
    -0.2769  -0.2525  -0.2478  -0.2316  -0.2194  -0.2003  -0.1912  -0.1702
    -0.1500  -0.1431  -0.1096  -0.0964  -0.0781  -0.0489  -0.0054   0.0405
     0.0896   0.1316   0.2133   0.8644

     highest occupied level (ev):     0.8644

!    total energy              =  -11181.49834626 Ry
     estimated scf accuracy    <       0.00000065 Ry

     The total energy is the sum of the following terms:
     one-electron contribution =  -20122.93448182 Ry
     hartree contribution      =   10706.26670797 Ry
     xc contribution           =   -2315.38328558 Ry
     ewald contribution        =     550.55271317 Ry

     convergence has been achieved in  12 iterations

     Forces acting on atoms (cartesian axes, Ry/au):

     atom    1 type  1   force =    -0.00151608    0.00320445    0.00371882
     atom    2 type  2   force =     0.03986566   -0.00245087   -0.03985894
     atom    3 type  3   force =    -0.05485547    0.01448490   -0.05074337
     atom    4 type  3   force =     0.01205408    0.06092302   -0.07036323
     atom    5 type  3   force =     0.03349786   -0.10044634    0.00105519
     atom    6 type  3   force =     0.08005877    0.07363251    0.01631776
     atom    7 type  3   force =     0.01534090    0.01394084    0.01050173
     atom    8 type  3   force =     0.01638409   -0.01348905   -0.02975277
     atom    9 type  4   force =    -0.04224472    0.00579397   -0.04323267
     atom   10 type  4   force =    -0.04163670   -0.04368498   -0.03957465
     atom   11 type  4   force =    -0.00105431   -0.01634766    0.01264773
     atom   12 type  4   force =    -0.01859808   -0.00088730    0.01794810
     atom   13 type  4   force =     0.01271481   -0.02995808   -0.00426076
     atom   14 type  4   force =    -0.02764808   -0.04130378    0.06052018
     atom   15 type  4   force =     0.01324266   -0.02094467    0.01554216
     atom   16 type  4   force =     0.01230410    0.02535849    0.04714268
     atom   17 type  4   force =     0.00055229   -0.10463868    0.03824508
     atom   18 type  4   force =    -0.00297552    0.09251544   -0.01994875
     atom   19 type  4   force =    -0.04281499    0.02421590    0.00204219
     atom   20 type  4   force =    -0.01751735   -0.01418275    0.01084485
     atom   21 type  4   force =     0.03175976    0.00091272    0.06333417
     atom   22 type  4   force =    -0.03494328    0.02112096   -0.00484503
     atom   23 type  2   force =     0.02458770    0.07002064   -0.04416576
     atom   24 type  3   force =     0.05259610    0.06412672    0.01002396
     atom   25 type  3   force =     0.02594371   -0.01728082    0.03063338
     atom   26 type  4   force =     0.08854677    0.02544713    0.02029997
     atom   27 type  4   force =     0.00924517    0.00237642    0.02454763
     atom   28 type  4   force =     0.06292721   -0.04690887    0.83884470
     atom   29 type  4   force =    -0.05055728   -0.02347398    0.03428681
     atom   30 type  4   force =    -0.10270133   -0.03029507    0.36444475
     atom   31 type  4   force =     0.01970621   -0.04551574    0.05142272
     atom   32 type  4   force =    -0.00411195   -0.01090649    0.03434012
     atom   33 type  4   force =     0.04091795   -0.03021099    0.03110812
     atom   34 type  4   force =    -0.02369237    0.03085662   -0.05499963
     atom   35 type  4   force =    -0.00750205   -0.00841261   -0.00962231
     atom   36 type  2   force =     0.02849373    0.04848493   -0.01799460
     atom   37 type  3   force =     0.02834531   -0.07044580   -0.06092656
     atom   38 type  3   force =    -0.02606555   -0.01553918    0.07960671
     atom   39 type  4   force =    -0.03905342    0.00194521   -0.01294758
     atom   40 type  4   force =    -0.02934755   -0.04705232   -0.07587946
     atom   41 type  4   force =    -0.00384847   -0.00632628   -0.01113394
     atom   42 type  4   force =    -0.03409323   -0.01799024    0.01276088
     atom   43 type  4   force =    -0.03333321   -0.03958330   -0.07957882
     atom   44 type  4   force =     0.00863435    0.03700119   -0.00104903
     atom   45 type  4   force =    -0.02729954    0.00898094    0.00747691
     atom   46 type  4   force =    -0.03509647   -0.01216431    0.04745949
     atom   47 type  1   force =    -0.00596704   -0.00409868   -0.00068630
     atom   48 type  1   force =     0.00034418   -0.00478071    0.01069624
     atom   49 type  1   force =     0.00585971   -0.00371373    0.01145219
     atom   50 type  2   force =     0.05205057   -0.01771509    0.00081957
     atom   51 type  3   force =    -0.12481155    0.01230913    0.02805938
     atom   52 type  3   force =    -0.07796755    0.00507440    0.00260122
     atom   53 type  3   force =     0.01784073   -0.04258317    0.03664632
     atom   54 type  3   force =     0.04475124   -0.01911693    0.06414612
     atom   55 type  3   force =     0.01193970   -0.02073794   -0.01708857
     atom   56 type  3   force =     0.02121548    0.01024885    0.01389425
     atom   57 type  4   force =     0.06522577   -0.00476735    0.02056823
     atom   58 type  4   force =    -0.02310037    0.07094600    0.01253906
     atom   59 type  4   force =     0.00206879   -0.02641463   -0.04355001
     atom   60 type  4   force =     0.00305051   -0.02966961   -0.03105008
     atom   61 type  4   force =    -0.01615883   -0.00921022    0.02069804
     atom   62 type  4   force =    -0.01603658    0.00589953    0.00778512
     atom   63 type  4   force =    -0.03757460    0.08263105    0.00950915
     atom   64 type  4   force =     0.02011010    0.02968511    0.01816931
     atom   65 type  4   force =    -0.01807478    0.02251885   -0.01127461
     atom   66 type  4   force =    -0.01332221    0.00952942    0.04333269
     atom   67 type  4   force =     0.00059964   -0.01813454    0.00100275
     atom   68 type  4   force =    -0.01180846   -0.03617467   -0.05561807
     atom   69 type  4   force =    -0.02084559   -0.02942031    0.00889762
     atom   70 type  4   force =    -0.00621027    0.01515415    0.00289569
     atom   71 type  4   force =     0.01864460   -0.00256344   -0.00049049
     atom   72 type  4   force =    -0.04121887    0.04448928    0.00722826
     atom   73 type  1   force =    -0.00596785   -0.00383647    0.00817846
     atom   74 type  2   force =    -0.01331690    0.04459711   -0.01675625
     atom   75 type  2   force =    -0.04110096    0.08437447    0.04854679
     atom   76 type  3   force =     0.03750671   -0.01349911   -0.01057331
     atom   77 type  3   force =    -0.04340011    0.03669640   -0.03142845
     atom   78 type  3   force =    -0.03157332    0.05023828    0.01027142
     atom   79 type  3   force =    -0.03904873    0.04925886   -0.00432362
     atom   80 type  3   force =    -0.03953783   -0.05506499   -0.00110537
     atom   81 type  3   force =    -0.00303490   -0.00647952    0.01481815
     atom   82 type  4   force =     0.04112164    0.01747784   -0.00698950
     atom   83 type  4   force =     0.05322151    0.00614681   -0.01936658
     atom   84 type  4   force =    -0.00266929   -0.01427983   -0.00720595
     atom   85 type  4   force =     0.03145848   -0.01825348   -0.00029742
     atom   86 type  4   force =     0.00411542    0.00170201    0.00022370
     atom   87 type  4   force =    -0.00536336    0.03912772    0.01033867
     atom   88 type  4   force =    -0.00707241   -0.00964236   -0.03045153
     atom   89 type  4   force =    -0.00103781    0.03699655    0.00554309
     atom   90 type  4   force =     0.00781244   -0.03321698   -0.03418145
     atom   91 type  4   force =     0.02441241    0.03137657   -0.02718552
     atom   92 type  4   force =    -0.00459912   -0.03083231   -0.01339000
     atom   93 type  4   force =     0.07106933   -0.05513525   -0.00878804
     atom   94 type  4   force =     0.00694094   -0.03640790    0.01634961
     atom   95 type  4   force =    -0.00081128   -0.03230046    0.02329536
     atom   96 type  4   force =     0.04653946   -0.02279415    0.08899264
     atom   97 type  1   force =    -0.00415700   -0.00489674    0.00289724
     atom   98 type  1   force =    -0.00250068   -0.00627455    0.01173305
     atom   99 type  1   force =    -0.00591682    0.00054650    0.02065440
     atom  100 type  2   force =     0.00412571   -0.01157704   -0.03577750
     atom  101 type  2   force =    -0.05012827    0.02742945    0.02906855
     atom  102 type  3   force =    -0.06077736   -0.03916827   -0.06097515
     atom  103 type  3   force =     0.03719912    0.09185102   -0.01101686
     atom  104 type  3   force =    -0.06049901    0.01100244    0.02579868
     atom  105 type  3   force =     0.03808547   -0.04601139   -0.06887179
     atom  106 type  3   force =    -0.00898871    0.04371400   -0.02341860
     atom  107 type  3   force =    -0.03950908    0.06167286   -0.01694776
     atom  108 type  4   force =     0.08422208   -0.02966056   -0.02062381
     atom  109 type  4   force =    -0.01838994    0.00607959   -0.00762527
     atom  110 type  4   force =    -0.04840367   -0.00424278    0.00334131
     atom  111 type  4   force =    -0.00642097   -0.02610855   -0.06013422
     atom  112 type  4   force =     0.00132058    0.02866538    0.02621243
     atom  113 type  4   force =    -0.00709607   -0.00283006   -0.02707293
     atom  114 type  4   force =    -0.05600890   -0.00081293    0.02426566
     atom  115 type  4   force =     0.01650310    0.02251939   -0.01101502
     atom  116 type  4   force =    -0.00813624   -0.02439571    0.01911852
     atom  117 type  4   force =     0.01265524    0.01409148    0.04506428
     atom  118 type  4   force =    -0.00650211   -0.01740434    0.01550854
     atom  119 type  4   force =     0.01433636    0.05062387   -0.00347938
     atom  120 type  4   force =    -0.01478123   -0.01239853   -0.00689831
     atom  121 type  4   force =     0.02543219   -0.01011439    0.00389419
     atom  122 type  4   force =     0.00620552   -0.04307817   -0.00771981
     atom  123 type  4   force =     0.05863636    0.00941242    0.04266495
     atom  124 type  4   force =     0.00030978   -0.01571265    0.01219856
     atom  125 type  5   force =     0.01046132    0.01029369    0.05776944
     atom  126 type  5   force =     0.04976471    0.02861338   -0.01220446
     atom  127 type  5   force =    -0.01274058   -0.01933969    0.00824991
     atom  128 type  5   force =     0.03415329    0.00736497   -0.02724808
     atom  129 type  5   force =     0.01136345   -0.00687177    0.00287976
     atom  130 type  5   force =     0.03543605   -0.01043197   -0.03715545
     atom  131 type  5   force =     0.02746287   -0.03944345   -0.03498246
     atom  132 type  5   force =     0.01673986    0.00764278   -0.02978750
     atom  133 type  5   force =    -0.01298536    0.01753891   -0.00332264
     atom  134 type  5   force =    -0.00288428    0.02379054   -0.01620400
     atom  135 type  5   force =     0.01042630   -0.00815901   -0.00442115
     atom  136 type  5   force =    -0.01034886   -0.01984900   -0.04253101
     atom  137 type  5   force =     0.44624658   -7.07503051    1.19577929
     atom  138 type  5   force =    -0.01144357   -0.01450667   -0.00746788
     atom  139 type  5   force =    -0.00333320    0.00124849   -0.01618923
     atom  140 type  5   force =    -0.03133853   -0.01598448    0.02937348
     atom  141 type  1   force =    -0.00897249    0.00788902    0.00105168
     atom  142 type  2   force =     0.01518314   -0.05506696    0.00322943
     atom  143 type  3   force =     0.07674817   -0.06756296    0.09887883
     atom  144 type  3   force =     0.04289510   -0.00708536   -0.03074794
     atom  145 type  3   force =    -0.08889939   -0.04485849   -0.01458930
     atom  146 type  3   force =    -0.01036944    0.02135499    0.01889910
     atom  147 type  3   force =     0.02653518   -0.01103550    0.04336160
     atom  148 type  3   force =     0.01425139   -0.00425300   -0.01880755
     atom  149 type  4   force =    -0.07666829   -0.01291790   -0.00293317
     atom  150 type  4   force =     0.01921673    0.00489677   -0.01840051
     atom  151 type  4   force =     0.00550867   -0.01153109    0.01055209
     atom  152 type  4   force =    -0.03018538   -0.00249029    0.03052650
     atom  153 type  4   force =     0.01602524   -0.03664828   -0.01106735
     atom  154 type  4   force =    -0.02517417    0.00021541    0.01486485
     atom  155 type  4   force =     0.00315901    0.02488521   -0.03055131
     atom  156 type  4   force =     0.00703200    0.03581747    0.01318241
     atom  157 type  4   force =    -0.00527566    0.04052061    0.01222229
     atom  158 type  4   force =    -0.00134643   -0.01486786    0.04658638
     atom  159 type  4   force =    -0.01192502    0.00134181    0.00371527
     atom  160 type  4   force =     0.04999877    0.01227166    0.00250238
     atom  161 type  4   force =     0.02942571   -0.01352103   -0.03883815
     atom  162 type  4   force =     0.03988135   -0.03066609   -0.00888486
     atom  163 type  2   force =    -0.01667553   -0.00904826   -0.03544228
     atom  164 type  3   force =     0.03607332    0.07349255    0.00653959
     atom  165 type  3   force =    -0.00808633    0.01258829    0.04090312
     atom  166 type  4   force =    -0.01171271   -0.00500482   -0.02723683
     atom  167 type  4   force =    -0.05206582   -0.00498819    0.05788363
     atom  168 type  4   force =     0.03490729    0.03572127   -0.05844425
     atom  169 type  4   force =    -0.03500018   -0.00508482    0.01099013
     atom  170 type  4   force =     0.03869386   -0.00083202    0.04984120
     atom  171 type  4   force =     0.01712087   -0.00490341   -0.00671274
     atom  172 type  4   force =    -0.00467889    0.00292319    0.00968294
     atom  173 type  4   force =    -0.01870406    0.02296601   -0.01087831
     atom  174 type  4   force =     0.00611751    0.01215975   -0.04577181
     atom  175 type  4   force =     0.01573611    0.04310606    0.02534890
     atom  176 type  2   force =     0.02642832   -0.02195571    0.01439674
     atom  177 type  3   force =     0.00348095   -0.04043657    0.07810819
     atom  178 type  3   force =    -0.02395576   -0.07276891    0.01954589
     atom  179 type  4   force =     0.08300264   -0.01091758    0.01565760
     atom  180 type  4   force =    -0.02520092   -0.02770274    0.04746085
     atom  181 type  4   force =     0.03821506    0.01521781   -0.02498312
     atom  182 type  4   force =    -0.02038682   -0.01456178   -0.01771333
     atom  183 type  4   force =    -0.00126796    0.01777888    0.00907962
     atom  184 type  4   force =     0.03646069    0.00626684   -0.04130612
     atom  185 type  4   force =    -0.07397033    0.02869753   -0.05793109
     atom  186 type  4   force =    -0.00400747   -0.02307623   -0.03939268
     atom  187 type  1   force =     0.00210760   -0.00540592    0.00909714
     atom  188 type  1   force =     0.00945077   -0.00179567   -0.00954484
     atom  189 type  1   force =     0.00110946    0.00732647   -0.00808046
     atom  190 type  2   force =     0.00853198   -0.02597923    0.02838210
     atom  191 type  3   force =     0.02504053    0.03314793    0.07081044
     atom  192 type  3   force =    -0.06114656    0.03642978   -0.06894014
     atom  193 type  3   force =     0.04243700    0.01598011    0.04262471
     atom  194 type  3   force =     0.00975317    0.00046411   -0.00950027
     atom  195 type  3   force =     0.03194226    0.05171709   -0.04700631
     atom  196 type  3   force =    -0.02402084    0.04501554    0.02488253
     atom  197 type  4   force =     0.00355186   -0.01498817   -0.01413954
     atom  198 type  4   force =    -0.01549197    0.00039656   -0.01780754
     atom  199 type  4   force =    -0.00189688   -0.06589314   -0.03484109
     atom  200 type  4   force =    -0.01306605    0.06824064   -0.00477320
     atom  201 type  4   force =    -0.03224444    0.00366699   -0.01210283
     atom  202 type  4   force =    -0.02908537   -0.00328077   -0.00905464
     atom  203 type  4   force =    -0.01226586   -0.04490976    0.04091346
     atom  204 type  4   force =    -0.00363895   -0.04502179    0.01950338
     atom  205 type  4   force =    -0.04005029    0.03502423    0.00048920
     atom  206 type  4   force =     0.01050993    0.01632252    0.00240026
     atom  207 type  4   force =    -0.00162111   -0.02364724    0.00438091
     atom  208 type  4   force =    -0.02050402    0.09120069    0.01923457
     atom  209 type  4   force =     0.00209581    0.00169889   -0.04265771
     atom  210 type  4   force =    -0.00383962   -0.00048640   -0.00398289
     atom  211 type  4   force =    -0.00075891   -0.05886309   -0.01244675
     atom  212 type  4   force =     0.05639839   -0.00464553    0.02042852
     atom  213 type  1   force =    -0.00898054    0.00127384   -0.00876965
     atom  214 type  2   force =     0.02604476    0.00796767   -0.03240103
     atom  215 type  2   force =    -0.01528091   -0.02732283   -0.03074064
     atom  216 type  3   force =    -0.06268337   -0.04717235   -0.01579171
     atom  217 type  3   force =    -0.03573777    0.00515044   -0.01820965
     atom  218 type  3   force =    -0.00969531   -0.04251313   -0.02230159
     atom  219 type  3   force =    -0.05617938    0.09086459    0.05025997
     atom  220 type  3   force =    -0.00216675    0.06225487    0.09044603
     atom  221 type  3   force =    -0.03623202   -0.05186446    0.04405708
     atom  222 type  4   force =    -0.05567954   -0.01233188   -0.01804437
     atom  223 type  4   force =     0.06698019   -0.02832990   -0.00372606
     atom  224 type  4   force =     0.00362887    0.02084436    0.00864736
     atom  225 type  4   force =    -0.01298564   -0.01307206   -0.00692625
     atom  226 type  4   force =     0.03767686    0.00205485   -0.01503452
     atom  227 type  4   force =     0.03349146    0.04627677   -0.04367075
     atom  228 type  4   force =     0.01332486   -0.00017167    0.00895720
     atom  229 type  4   force =    -0.00018079    0.00377733   -0.00346521
     atom  230 type  4   force =     0.01804154    0.03216864   -0.03456543
     atom  231 type  4   force =     0.00363389    0.01332753   -0.01000592
     atom  232 type  4   force =    -0.00613577   -0.00058274    0.01053369
     atom  233 type  4   force =    -0.04008268    0.02306069   -0.03677676
     atom  234 type  4   force =     0.02733707   -0.03764841   -0.01590783
     atom  235 type  4   force =     0.02306615    0.01061532    0.02533088
     atom  236 type  4   force =     0.02558583    0.00653412    0.02738943
     atom  237 type  1   force =     0.00919363   -0.00217804    0.00792392
     atom  238 type  1   force =    -0.00539088   -0.00157185    0.00329976
     atom  239 type  1   force =     0.00067117    0.00267897    0.00643498
     atom  240 type  2   force =     0.02957001    0.01193460    0.00410117
     atom  241 type  2   force =    -0.01050346   -0.01730837   -0.00470026
     atom  242 type  3   force =     0.03790458   -0.02201522    0.03774007
     atom  243 type  3   force =     0.02144076    0.04490364    0.05068138
     atom  244 type  3   force =     0.01060700   -0.00744248    0.00163300
     atom  245 type  3   force =     0.04495937    0.00730584   -0.03386356
     atom  246 type  3   force =     0.02013386    0.01275860    0.02041921
     atom  247 type  3   force =    -0.03199683   -0.04454071    0.03552005
     atom  248 type  4   force =     0.00324665    0.01247721   -0.02151622
     atom  249 type  4   force =     0.08312972    0.00284880    0.01576509
     atom  250 type  4   force =     0.01510281   -0.05346413   -0.04898533
     atom  251 type  4   force =     0.03148864   -0.00646544   -0.00827165
     atom  252 type  4   force =    -0.00560286    0.02697082   -0.00934923
     atom  253 type  4   force =    -0.03123476   -0.00636515    0.06298712
     atom  254 type  4   force =    -0.00206441    0.00239565    0.03868844
     atom  255 type  4   force =     0.00180447    0.00368096   -0.02070292
     atom  256 type  4   force =     0.02004008    0.00491176   -0.03615984
     atom  257 type  4   force =    -0.01947211   -0.00115105    0.01677890
     atom  258 type  4   force =     0.00646091   -0.00297096   -0.01726633
     atom  259 type  4   force =    -0.03072160   -0.04472027    0.04025480
     atom  260 type  4   force =    -0.02362064   -0.05500574   -0.01581963
     atom  261 type  4   force =    -0.05041047   -0.01229483    0.00597373
     atom  262 type  4   force =    -0.01246087    0.03029459   -0.02269387
     atom  263 type  4   force =    -0.04057581    0.00686086   -0.04493744
     atom  264 type  4   force =    -0.07434912    0.03963805   -0.03446522
     atom  265 type  5   force =     0.05053352    0.00155410   -0.05839546
     atom  266 type  5   force =     0.04307378    0.02206635   -0.01638888
     atom  267 type  5   force =    -0.00204281   -0.00944985   -0.00456529
     atom  268 type  5   force =    -0.01907224    0.02696952    0.04248138
     atom  269 type  5   force =    -0.01116143   -0.00079935    0.00273018
     atom  270 type  5   force =    -0.00404374    0.00521797    0.01377053
     atom  271 type  5   force =     0.02410686   -0.04365304   -0.01876642
     atom  272 type  5   force =    -0.05134972    0.00542630    0.04407311
     atom  273 type  5   force =    -0.01284857    0.05923340   -0.00316913
     atom  274 type  5   force =    -0.00693411   -0.02489664   -0.01277681
     atom  275 type  5   force =    -0.00938283   -0.00281048   -0.01047550
     atom  276 type  5   force =     0.05063756   -0.01874723   -0.05718800
     atom  277 type  5   force =    -0.01389960   -0.02878733    0.01140944
     atom  278 type  5   force =     0.00200995   -0.01619527   -0.02099630
     atom  279 type  5   force =    -0.00900974    0.00470098   -0.00015327
     atom  280 type  5   force =    -0.03726817   -0.00847976    0.04152725
     atom  281 type  4   force =     0.01402455   -0.00801667   -0.02095968
     atom  282 type  5   force =    -0.00380310    0.02595760    0.01846134
     atom  283 type  5   force =     0.00173076   -0.02310127    0.01049207
     atom  284 type  4   force =     0.09878188    0.00934124    0.03212910
     atom  285 type  5   force =    -0.03011856   -0.01621049   -0.00476848
     atom  286 type  5   force =    -0.05044819    0.02115495   -0.03418076
     atom  287 type  4   force =    -0.05234908   -0.00420076   -0.02569003
     atom  288 type  5   force =     0.01558263    0.01791715   -0.02144922
     atom  289 type  5   force =     0.04895542   -0.02318209    0.04787839
     atom  290 type  4   force =     0.00761500    0.02297250   -0.01408247
     atom  291 type  5   force =     0.03330267   -0.01597296    0.01062457
     atom  292 type  5   force =    -0.05677242   -0.01400521    0.01303633
     atom  293 type  4   force =    -0.01587352    0.05579406    0.02834251
     atom  294 type  5   force =     0.01478165   -0.04177726   -0.02918474
     atom  295 type  5   force =     0.00986449    0.00952792   -0.01270075
     atom  296 type  4   force =     0.02271733   -0.00200510    0.00752594
     atom  297 type  5   force =    -0.02811654   -0.00962415   -0.02311064
     atom  298 type  5   force =     0.02333208   -0.00762454    0.01469221
     atom  299 type  4   force =    -0.02309822   -0.00974713    0.09584194
     atom  300 type  5   force =    -0.04126860    0.01341316   -0.04242499
     atom  301 type  5   force =     0.05551170   -0.01258186   -0.04973781
     atom  302 type  4   force =    -0.00606776   -0.00114561    0.05646581
     atom  303 type  5   force =     0.02642051    0.00029178   -0.02616447
     atom  304 type  5   force =    -0.02009763    0.00432845   -0.02544892
     atom  305 type  4   force =     0.01262874    0.00829836   -0.00787606
     atom  306 type  5   force =    -0.01013420   -0.00235817   -0.01389481
     atom  307 type  5   force =    -0.01201503   -0.01261439    0.01347126
     atom  308 type  4   force =    -0.00211280   -0.02557224   -0.02513282
     atom  309 type  5   force =     0.01097979    0.02609750    0.01577219
     atom  310 type  5   force =    -0.00676852   -0.00662354    0.00132504
     atom  311 type  4   force =     0.02677535    0.01397086    0.02494522
     atom  312 type  5   force =    -0.02063775   -0.00277789    0.00354260
     atom  313 type  5   force =    -0.01016419   -0.02716678   -0.01894662
     atom  314 type  4   force =     0.00606853   -0.01980885   -0.03190635
     atom  315 type  5   force =    -0.01823923    0.00694735    0.01156613
     atom  316 type  5   force =     0.00967108    0.00068553    0.02134452
     atom  317 type  4   force =     0.03120456   -0.07861497    0.06050207
     atom  318 type  5   force =    -0.00304590    0.06975603   -0.00881752
     atom  319 type  5   force =    -0.02539070    0.02402869   -0.05432805
     atom  320 type  4   force =    -0.03854320   -0.04231223   -0.01323909
     atom  321 type  5   force =    -0.00244144    0.00623410    0.01567836
     atom  322 type  5   force =     0.03870760    0.02474599    0.00117487
     atom  323 type  4   force =     0.07231928    0.02801872   -0.00938069
     atom  324 type  5   force =    -0.00772341    0.00431717    0.00324756
     atom  325 type  5   force =    -0.05196261   -0.03837098    0.01021630
     atom  326 type  4   force =     0.02521587   -0.00741320    0.04675413
     atom  327 type  5   force =    -0.01733482   -0.00204727   -0.03838599
     atom  328 type  5   force =     0.00491248    0.00224702   -0.01723603
     atom  329 type  4   force =    -0.00934088    0.02443253   -0.42643173
     atom  330 type  5   force =     0.01158208   -0.02184373   -0.04997707
     atom  331 type  5   force =     0.12721262    0.05274053    0.05570934
     atom  332 type  4   force =     0.01681067    0.05528271   -0.03278297
     atom  333 type  5   force =    -0.02440322   -0.01505225   -0.01327966
     atom  334 type  5   force =     0.01039225   -0.02414602    0.02238739
     atom  335 type  4   force =     0.02936178   -0.03295267    0.01350352
     atom  336 type  5   force =    -0.09418490    0.03164625   -0.02925259
     atom  337 type  5   force =     0.05887041   -0.00153335    0.00974434
     atom  338 type  4   force =    -0.00387444   -0.03100897    0.00933667
     atom  339 type  5   force =     0.00000742    0.01818768   -0.00660845
     atom  340 type  5   force =    -0.00431493    0.00464042   -0.00208724
     atom  341 type  4   force =     0.04291242   -0.09599642    0.02366752
     atom  342 type  5   force =    -0.05455498    0.04870147   -0.01625345
     atom  343 type  5   force =     0.02629919    0.04042695    0.00399026
     atom  344 type  4   force =     0.03151709    0.02740290   -0.06364023
     atom  345 type  5   force =    -0.03968546    0.00585734    0.08629899
     atom  346 type  5   force =     0.01177961   -0.01871028   -0.01727012
     atom  347 type  4   force =     0.00356561    0.02098765    0.00775218
     atom  348 type  5   force =    -0.00293597   -0.01318352   -0.00997794
     atom  349 type  5   force =    -0.00840192   -0.00421774   -0.00287506
     atom  350 type  4   force =    -0.00822932   -0.02116401    0.00509004
     atom  351 type  5   force =    -0.00341943    0.04173138    0.04644824
     atom  352 type  5   force =    -0.00234096   -0.02170515   -0.04275802
     atom  353 type  4   force =     0.02076158    0.01149922   -0.00268592
     atom  354 type  5   force =    -0.01207761    0.00106987   -0.00167357
     atom  355 type  5   force =    -0.00269355   -0.01996515   -0.01278816
     atom  356 type  4   force =    -0.05690880   -0.06547277   -0.04409207
     atom  357 type  5   force =     0.03909562    0.07052325    0.04382415
     atom  358 type  5   force =     0.01539754   -0.00420333    0.01302789
     atom  359 type  4   force =    -0.05737100    0.01050906   -0.01217118
     atom  360 type  5   force =     0.02622887   -0.00159022   -0.00916006
     atom  361 type  5   force =     0.02485819   -0.00090684    0.04216996
     atom  362 type  4   force =     0.00971497    0.04568378   -0.02547063
     atom  363 type  5   force =     0.03189958   -0.05549449    0.01163227
     atom  364 type  5   force =    -0.01811991    0.01768591    0.00679515
     atom  365 type  4   force =     0.01128329   -0.01389562   -0.01309202
     atom  366 type  5   force =     0.03063398   -0.01183099   -0.00218468
     atom  367 type  5   force =    -0.03487142    0.01763677    0.01091436
     atom  368 type  4   force =     0.01213298   -0.09169436   -0.06123218
     atom  369 type  5   force =     0.02137695    0.06018559    0.05689601
     atom  370 type  5   force =    -0.01702012    0.02449287   -0.00463971
     atom  371 type  4   force =     0.07204824   -0.02404969   -0.03129462
     atom  372 type  5   force =    -0.05341761    0.01756523    0.01906148
     atom  373 type  5   force =    -0.01087712   -0.00370484    0.01788887
     atom  374 type  4   force =    -0.01051824    0.00304475    0.00689620
     atom  375 type  5   force =    -0.02453204    0.02623622    0.00455809
     atom  376 type  5   force =     0.01738812   -0.02735588   -0.02422574
     atom  377 type  4   force =     0.02911427    0.05181983    0.01937402
     atom  378 type  5   force =    -0.00340182   -0.02802357   -0.00726739
     atom  379 type  5   force =    -0.03054263   -0.01738544    0.00862989
     atom  380 type  4   force =     0.01599729    0.03261095   -0.01991135
     atom  381 type  5   force =    -0.01955679   -0.00253486   -0.00568889
     atom  382 type  5   force =     0.01957514   -0.02897477    0.01022470
     atom  383 type  4   force =     0.00258532    0.03763088    0.02591367
     atom  384 type  5   force =     0.00891226    0.00938242   -0.02676166
     atom  385 type  5   force =    -0.03176946   -0.03441830   -0.01326222
     atom  386 type  4   force =    -0.02164954    0.05350340   -0.05729562
     atom  387 type  5   force =     0.01821374   -0.04214639    0.04547706
     atom  388 type  5   force =    -0.01145023    0.00299302    0.00226186
     atom  389 type  4   force =    -0.01608316   -0.01930785   -0.00229666
     atom  390 type  5   force =     0.00164977    0.02359059    0.00768016
     atom  391 type  5   force =     0.02151524   -0.00479619    0.00870049
     atom  392 type  4   force =     0.04699958   -0.02898104   -0.06196526
     atom  393 type  5   force =    -0.03822667    0.02314571    0.02207225
     atom  394 type  5   force =    -0.00188559    0.00144494    0.02360219
     atom  395 type  4   force =     0.01212919   -0.00647239    0.00251681
     atom  396 type  5   force =    -0.01092819    0.00084862   -0.00638206
     atom  397 type  5   force =     0.00096914    0.00291231    0.00981412
     atom  398 type  4   force =    -0.04435639   -0.00130414    0.01543737
     atom  399 type  5   force =     0.00509186   -0.02685614   -0.01013313
     atom  400 type  5   force =     0.02940631    0.01902910   -0.00637688
     atom  401 type  4   force =    -0.00249919   -0.03982392   -0.04025505
     atom  402 type  5   force =    -0.01707163    0.02405786    0.01961469
     atom  403 type  5   force =     0.01053417    0.00218717    0.02992168
     atom  404 type  4   force =     0.01805067   -0.04781565    0.02664313
     atom  405 type  5   force =    -0.02302628    0.02491501   -0.01962051
     atom  406 type  5   force =     0.00374039    0.01532117   -0.01178152
     atom  407 type  4   force =    -0.04296815   -0.06192037    0.03001446
     atom  408 type  5   force =     0.01915190    0.02510223   -0.01990330
     atom  409 type  5   force =     0.01266393    0.02495718   -0.01364404
     atom  410 type  4   force =     0.09911543    0.08742174   -0.66522375
     atom  411 type  5   force =    -0.01481288    0.00830209   -0.06381154
     atom  412 type  5   force =    -0.60691322    7.03042334   -1.31530193
     atom  413 type  4   force =    -0.01419661    0.02548727    0.02369547
     atom  414 type  5   force =     0.01065066    0.00727891   -0.01330675
     atom  415 type  5   force =    -0.00165128   -0.02106092   -0.00906828
     atom  416 type  4   force =    -0.01928102    0.05939071    0.03208021
     atom  417 type  5   force =     0.01139936   -0.01256276   -0.00798216
     atom  418 type  5   force =     0.01315188   -0.03308652   -0.03057589
     atom  419 type  4   force =    -0.03729038   -0.04148535   -0.00209024
     atom  420 type  5   force =    -0.02166107    0.03067011   -0.01727414
     atom  421 type  5   force =     0.03709468    0.02084628    0.02807147
     atom  422 type  4   force =    -0.01613314   -0.02309298    0.05341331
     atom  423 type  5   force =     0.00587036   -0.00130488    0.01985568
     atom  424 type  5   force =     0.00511591    0.00769522   -0.07429354
     atom  425 type  4   force =     0.02705287    0.06335080   -0.04390034
     atom  426 type  5   force =     0.00192396   -0.00848686    0.00346711
     atom  427 type  5   force =    -0.02368973   -0.04304140    0.02309619
     atom  428 type  4   force =     0.05038653    0.02169521   -0.04487051
     atom  429 type  5   force =    -0.01565877   -0.00607261    0.04337539
     atom  430 type  5   force =    -0.04222988   -0.02711486    0.00932945
     atom  431 type  4   force =     0.01020800   -0.05061214    0.01286348
     atom  432 type  5   force =    -0.00482094    0.02731909    0.02629748
     atom  433 type  5   force =     0.01069520    0.01862175   -0.02625757
     atom  434 type  4   force =     0.04514173    0.03715668   -0.05999176
     atom  435 type  5   force =    -0.02991176    0.00550104    0.01037844
     atom  436 type  5   force =    -0.01997453   -0.04196034    0.03168713
     atom  437 type  4   force =    -0.02686366   -0.02428456    0.03983508
     atom  438 type  5   force =     0.00984313    0.03444020   -0.02788201
     atom  439 type  5   force =     0.02794508   -0.00658016   -0.01253005
     atom  440 type  4   force =    -0.00675157    0.00489400   -0.01004359
     atom  441 type  5   force =    -0.01141883    0.00258616    0.00436643
     atom  442 type  5   force =     0.00355554    0.00058333    0.00985270
     atom  443 type  4   force =    -0.06987286   -0.00287432   -0.01915065
     atom  444 type  5   force =     0.03450036    0.01732593    0.04862785
     atom  445 type  5   force =     0.04283083   -0.02299343   -0.01198168
     atom  446 type  4   force =     0.04014588   -0.03396945   -0.02205120
     atom  447 type  5   force =     0.00783496    0.00740390   -0.01154286
     atom  448 type  5   force =    -0.02868300    0.05502156    0.03223071
     atom  449 type  4   force =    -0.00204409   -0.02228984   -0.00017350
     atom  450 type  5   force =     0.00689215    0.03809314   -0.01709949
     atom  451 type  5   force =    -0.00104921   -0.00673737    0.00916751
     atom  452 type  4   force =    -0.00555036    0.00328602   -0.00388210
     atom  453 type  5   force =     0.00308051    0.00829608   -0.01702578
     atom  454 type  5   force =     0.01163958   -0.01599629    0.01859349
     atom  455 type  4   force =    -0.00603317    0.00090346    0.01143417
     atom  456 type  5   force =     0.01915943   -0.00507013   -0.01099207
     atom  457 type  5   force =    -0.00902882    0.00691934    0.00186378
     atom  458 type  4   force =    -0.03780565   -0.03276356    0.02831966
     atom  459 type  5   force =     0.01877470   -0.00185146   -0.01156978
     atom  460 type  5   force =    -0.00141333    0.01439768    0.00151082
     atom  461 type  4   force =    -0.00857156   -0.06833473    0.08316615
     atom  462 type  5   force =     0.00228094    0.00132901   -0.00003980
     atom  463 type  5   force =     0.00697077    0.04766839   -0.07975287
     atom  464 type  4   force =     0.02459058   -0.06857910    0.00963774
     atom  465 type  5   force =    -0.02806716    0.05326388    0.00501005
     atom  466 type  5   force =    -0.00986337    0.01595054    0.00152781
     atom  467 type  4   force =    -0.02322969   -0.02809894   -0.02763170
     atom  468 type  5   force =     0.02665901    0.04538045    0.04069109
     atom  469 type  5   force =     0.01581886    0.00784281   -0.01253539
     atom  470 type  4   force =    -0.05311667   -0.05682939    0.01455230
     atom  471 type  5   force =     0.04943222    0.05964008   -0.00723586
     atom  472 type  5   force =     0.00343002   -0.00166242   -0.00474538
     atom  473 type  4   force =     0.01923792    0.01515272   -0.00421590
     atom  474 type  5   force =    -0.01638394    0.02866855   -0.02471008
     atom  475 type  5   force =    -0.01538076   -0.02306749    0.03588840
     atom  476 type  4   force =     0.00534719    0.02070824   -0.00646421
     atom  477 type  5   force =     0.01841394   -0.00170090   -0.00234412
     atom  478 type  5   force =    -0.01541645   -0.01830386    0.00910712
     atom  479 type  4   force =     0.02983430    0.00994279    0.07114825
     atom  480 type  5   force =    -0.01250422   -0.00156715   -0.00700417
     atom  481 type  5   force =    -0.00406359   -0.02237026   -0.04051603
     atom  482 type  4   force =     0.03272600    0.06146159    0.01187349
     atom  483 type  5   force =    -0.02131972   -0.02426020   -0.00080411
     atom  484 type  5   force =    -0.01850629   -0.02896989   -0.01468797
     atom  485 type  4   force =    -0.01167017   -0.08106151    0.00502902
     atom  486 type  5   force =     0.01227829   -0.00463052    0.01248993
     atom  487 type  5   force =     0.00936851    0.07919413   -0.02396675
     atom  488 type  4   force =     0.01540462   -0.01480742    0.02838079
     atom  489 type  5   force =    -0.01486449    0.00386617   -0.00691557
     atom  490 type  5   force =    -0.01087363    0.02977530   -0.01411600
     atom  491 type  4   force =    -0.01556231   -0.01926671    0.00055993
     atom  492 type  5   force =     0.00691482    0.01968059    0.01059428
     atom  493 type  5   force =     0.00728690   -0.00544050   -0.01637228

     Total force =    10.299879     Total SCF correction =     0.000577
     Message from routine punch:
     Nothing written, as per user request (disk_io='none')

     init_run     :     33.17s CPU     33.86s WALL (       1 calls)
     electrons    :    742.23s CPU    753.70s WALL (       1 calls)
     forces       :      8.39s CPU      8.72s WALL (       1 calls)

     Called by init_run:
     wfcinit      :     29.85s CPU     30.36s WALL (       1 calls)
     potinit      :      0.22s CPU      0.32s WALL (       1 calls)
     hinit0       :      2.10s CPU      2.14s WALL (       1 calls)

     Called by electrons:
     c_bands      :    620.83s CPU    630.32s WALL (      12 calls)
     sum_band     :    118.25s CPU    119.33s WALL (      12 calls)
     v_of_rho     :      2.57s CPU      3.34s WALL (      13 calls)
     mix_rho      :      0.50s CPU      0.68s WALL (      12 calls)

     Called by c_bands:
     init_us_2    :      1.49s CPU      1.57s WALL (      25 calls)
     init_us_2:cp :      1.49s CPU      1.57s WALL (      25 calls)
     regterg      :    618.01s CPU    626.32s WALL (      12 calls)

     Called by *egterg:
     rdiaghg      :      6.44s CPU      6.98s WALL (      39 calls)
     h_psi        :    547.08s CPU    552.75s WALL (      40 calls)
     g_psi        :      0.17s CPU      0.18s WALL (      27 calls)

     Called by h_psi:
     h_psi:calbec :     40.13s CPU     41.21s WALL (      40 calls)
     vloc_psi     :    118.46s CPU    119.54s WALL (      40 calls)
     add_vuspsi   :     35.35s CPU     35.84s WALL (      40 calls)
     h_psi_meta   :    352.49s CPU    355.51s WALL (      40 calls)

     General routines
     calbec       :     45.79s CPU     47.01s WALL (      44 calls)
     fft          :      3.32s CPU      3.89s WALL (     129 calls)
     ffts         :      0.16s CPU      0.25s WALL (      24 calls)
     fftw         :    563.85s CPU    568.60s WALL (  150912 calls)
     interpolate  :      0.00s CPU      0.00s WALL (      13 calls)

     Parallel routines

     PWSCF        :  13m 3.98s CPU  13m16.89s WALL


   This run was terminated on:  13: 5: 6   9Mar2025            

=------------------------------------------------------------------------------=
   JOB DONE.
=------------------------------------------------------------------------------=
