
     Program PWSCF v.7.3 starts on  9Mar2025 at 11:43:53 

     This program is part of the open-source Quantum ESPRESSO suite
     for quantum simulation of materials; please cite
         "P. Giannozzi et al., J. Phys.:Condens. Matter 21 395502 (2009);
         "P. Giannozzi et al., J. Phys.:Condens. Matter 29 465901 (2017);
         "P. Giannozzi et al., J. Chem. Phys. 152 154105 (2020);
          URL http://www.quantum-espresso.org", 
     in publications or presentations arising from this work. More details at
     http://www.quantum-espresso.org/quote

     Parallel version (MPI & OpenMP), running on     120 processor cores
     Number of MPI processes:               120
     Threads/MPI process:                     1

     MPI processes distributed on     1 nodes
     616786 MiB available memory on the printing compute node when the environment starts

     Reading input from pw-water-94.in
Warning: card &CELL ignored
Warning: card / ignored
Warning: card &FCP ignored
Warning: card / ignored
Warning: card &RISM ignored
Warning: card / ignored

     Current dimensions of program PWSCF are:
     Max number of different atomic species (ntypx) = 10
     Max number of k-points (npk) =  40000
     Max angular momentum in pseudopotentials (lmaxx) =  4

     IMPORTANT: XC functional enforced from input :
     Exchange-correlation= SCAN
                           (   0   0   0   0   0 263 267)
     Any further DFT definition will be discarded
     Please, verify this is what you really want


     gamma-point specific algorithms are used

     R & G space division:  proc/nbgrp/npool/nimage =     120
     Subspace diagonalization in iterative solution of the eigenvalue problem:
     one sub-group per band group will be used
     ELPA distributed-memory algorithm (size of sub-group: 10* 10 procs)


     Parallelization info
     --------------------
     sticks:   dense  smooth     PW     G-vecs:    dense   smooth      PW
     Min         223     223     55                53054    53054    6618
     Max         226     226     58                53096    53096    6642
     Sum       27001   27001   6747              6368777  6368777  796049

     Using Slab Decomposition



     bravais-lattice index     =            0
     lattice parameter (alat)  =      27.1743  a.u.
     unit-cell volume          =   40863.0649 (a.u.)^3
     number of atoms/cell      =          493
     number of atomic types    =            5
     number of electrons       =      2104.00
     number of Kohn-Sham states=         1052
     kinetic-energy cutoff     =     110.0000  Ry
     charge density cutoff     =     440.0000  Ry
     scf convergence threshold =      1.0E-06
     mixing beta               =       0.5000
     number of iterations used =            8  plain     mixing
     Exchange-correlation= SCAN
                           (   0   0   0   0   0 263 267)

     celldm(1)=  27.174262  celldm(2)=   0.000000  celldm(3)=   0.000000
     celldm(4)=   0.000000  celldm(5)=   0.000000  celldm(6)=   0.000000

     crystal axes: (cart. coord. in units of alat)
               a(1) = (   1.000000   0.000000   0.000000 )  
               a(2) = (   0.263718   1.045271   0.000000 )  
               a(3) = (  -1.114529  -1.155389   1.948179 )  

     reciprocal axes: (cart. coord. in units 2 pi/alat)
               b(1) = (  1.000000 -0.252296  0.422460 )  
               b(2) = ( -0.000000  0.956690  0.567375 )  
               b(3) = (  0.000000  0.000000  0.513300 )  


     PseudoPot. # 1 for K  read from file:
     /scratch/zhouwq/DFT-feldspar-surface/script-dft/K_ONCV_PBE_sr.upf
     MD5 check sum: 1b7a13238029e3acac828725779bbc07
     Pseudo is Norm-conserving, Zval =  9.0
     Generated using ONCVPSP code by D. R. Hamann
     Using radial grid of 2222 points,  6 beta functions with: 
                l(1) =   0
                l(2) =   0
                l(3) =   1
                l(4) =   1
                l(5) =   2
                l(6) =   2

     PseudoPot. # 2 for Al read from file:
     /scratch/zhouwq/DFT-feldspar-surface/script-dft/Al_ONCV_PBE_sr.upf
     MD5 check sum: f1d308f5052db2acb2ab62005e7ebd82
     Pseudo is Norm-conserving, Zval = 11.0
     Generated using ONCVPSP code by D. R. Hamann
     Using radial grid of 1876 points,  4 beta functions with: 
                l(1) =   0
                l(2) =   0
                l(3) =   1
                l(4) =   1

     PseudoPot. # 3 for Si read from file:
     /scratch/zhouwq/DFT-feldspar-surface/script-dft/Si_ONCV_PBE_sr.upf
     MD5 check sum: 8553c464762ac42b85b1eed164b4d029
     Pseudo is Norm-conserving, Zval =  4.0
     Generated using ONCVPSP code by D. R. Hamann
     Using radial grid of 1510 points,  4 beta functions with: 
                l(1) =   0
                l(2) =   0
                l(3) =   1
                l(4) =   1

     PseudoPot. # 4 for O  read from file:
     /scratch/zhouwq/DFT-feldspar-surface/script-dft/O_ONCV_PBE_sr.upf
     MD5 check sum: 503208cc3dd01d9a06cc7045986f7d49
     Pseudo is Norm-conserving, Zval =  6.0
     Generated using ONCVPSP code by D. R. Hamann
     Using radial grid of  936 points,  4 beta functions with: 
                l(1) =   0
                l(2) =   0
                l(3) =   1
                l(4) =   1

     PseudoPot. # 5 for H  read from file:
     /scratch/zhouwq/DFT-feldspar-surface/script-dft/H_ONCV_PBE_sr.upf
     MD5 check sum: 8975ef619c0c80d0ef0fa21f3286b90d
     Pseudo is Norm-conserving, Zval =  1.0
     Generated using ONCVPSP code by D. R. Hamann
     Using radial grid of 1166 points,  2 beta functions with: 
                l(1) =   0
                l(2) =   0

     atomic species   valence    mass     pseudopotential
     K                 9.00    39.09830     K ( 1.00)
     Al               11.00    26.98154     Al( 1.00)
     Si                4.00    28.08500     Si( 1.00)
     O                 6.00    15.99900     O ( 1.00)
     H                 1.00     1.00800     H ( 1.00)

     No symmetry found



   Cartesian axes

     site n.     atom                  positions (alat units)
         1        K      tau(   1) = (  -0.9205420  -0.8726827   2.7476618  )
         2        Al     tau(   2) = (  -1.1823589  -1.6368994   2.7954033  )
         3        Si     tau(   3) = (  -1.0552852  -0.8245837   2.9631527  )
         4        Si     tau(   4) = (  -1.4541492  -1.6339876   2.8032405  )
         5        Si     tau(   5) = (  -1.1947834  -0.7916353   2.8040087  )
         6        Si     tau(   6) = (  -1.3219498  -1.6684238   2.9688525  )
         7        Si     tau(   7) = (  -0.9680740  -0.6851577   2.6167497  )
         8        Si     tau(   8) = (  -1.3125222  -1.5034668   2.6947993  )
         9        O      tau(   9) = (  -1.5564484  -1.6000782   2.8171784  )
        10        O      tau(  10) = (  -1.2022648  -0.8646499   2.7168694  )
        11        O      tau(  11) = (  -1.2789079  -0.8063453   2.8701076  )
        12        O      tau(  12) = (  -1.2341869  -1.6602400   2.9023583  )
        13        O      tau(  13) = (  -0.9141513  -0.6165663   2.5475281  )
        14        O      tau(  14) = (  -1.3964787  -1.5540513   2.7516194  )
        15        O      tau(  15) = (  -1.3206166  -1.5196614   2.5846437  )
        16        O      tau(  16) = (  -0.9354972  -0.6881568   2.7224579  )
        17        O      tau(  17) = (  -1.3237247  -1.7717867   3.0195218  )
        18        O      tau(  18) = (  -1.1877863  -0.6918991   2.7479512  )
        19        O      tau(  19) = (  -1.0759842  -0.6578022   2.6148962  )
        20        O      tau(  20) = (  -1.2169600  -1.5376247   2.7391844  )
        21        O      tau(  21) = (  -1.0963443  -0.8164846   2.8568433  )
        22        O      tau(  22) = (  -1.4143331  -1.6474619   2.9108301  )
        23        Al     tau(  23) = (  -1.0506357  -1.1100555   2.8118014  )
        24        Si     tau(  24) = (  -1.1875276  -0.9782768   2.7046794  )
        25        Si     tau(  25) = (  -1.0982774  -1.2138566   2.6312497  )
        26        O      tau(  26) = (  -1.4346538  -1.0769863   2.8295076  )
        27        O      tau(  27) = (  -0.9441378  -0.7944940   2.5741959  )
        28        O      tau(  28) = (  -1.0614384  -1.3169113   2.6053222  )
        29        O      tau(  29) = (  -1.2887898  -1.0230995   2.7479178  )
        30        O      tau(  30) = (  -1.0506271  -1.1380966   2.5601913  )
        31        O      tau(  31) = (  -1.0804997  -1.2051229   2.7419341  )
        32        O      tau(  32) = (  -1.2022827  -0.9916798   2.5916405  )
        33        O      tau(  33) = (  -1.0979639  -1.0168394   2.7606255  )
        34        O      tau(  34) = (  -1.2084978  -1.2085414   2.6020716  )
        35        O      tau(  35) = (  -1.8439720  -1.9400383   3.6726127  )
        36        Al     tau(  36) = (  -1.5990502  -1.0848512   3.4475257  )
        37        Si     tau(  37) = (  -1.4593031  -1.2231159   3.5425411  )
        38        Si     tau(  38) = (  -1.8130438  -2.0399355   3.6251885  )
        39        O      tau(  39) = (  -1.2158530  -1.1264932   3.4239583  )
        40        O      tau(  40) = (  -1.7233670  -1.4249178   3.6797375  )
        41        O      tau(  41) = (  -1.3666299  -1.1576716   3.5189960  )
        42        O      tau(  42) = (  -1.8667134  -2.1272750   3.6763699  )
        43        O      tau(  43) = (  -1.8394898  -2.0285598   3.5132183  )
        44        O      tau(  44) = (  -1.4691367  -1.2256931   3.6541384  )
        45        O      tau(  45) = (  -1.5477210  -1.1885944   3.4887102  )
        46        O      tau(  46) = (  -1.6980735  -2.0418870   3.6345843  )
        47        K      tau(  47) = (  -1.7116118  -1.3301615   3.5142202  )
        48        K      tau(  48) = (  -1.3397312  -1.6771527   3.2260177  )
        49        K      tau(  49) = (  -1.8426764  -1.8276035   3.5082643  )
        50        Al     tau(  50) = (  -1.7285970  -1.6146752   3.4498579  )
        51        Si     tau(  51) = (  -1.5905115  -1.3846564   3.2696903  )
        52        Si     tau(  52) = (  -1.4454823  -1.6105971   3.4427665  )
        53        Si     tau(  53) = (  -1.4473377  -1.4049620   3.4325581  )
        54        Si     tau(  54) = (  -1.5803715  -1.5918693   3.2766425  )
        55        Si     tau(  55) = (  -1.6844958  -1.5240690   3.6377793  )
        56        Si     tau(  56) = (  -1.5899247  -1.7485362   3.5435709  )
        57        O      tau(  57) = (  -1.3447132  -1.6560246   3.4327696  )
        58        O      tau(  58) = (  -1.4340084  -1.3328079   3.5204098  )
        59        O      tau(  59) = (  -1.5554996  -1.8578085   3.5261041  )
        60        O      tau(  60) = (  -1.5880934  -1.6602068   3.1848387  )
        61        O      tau(  61) = (  -1.3637249  -1.4166186   3.3671160  )
        62        O      tau(  62) = (  -1.6711085  -1.5976948   3.3458140  )
        63        O      tau(  63) = (  -1.7275711  -1.6124536   3.6954231  )
        64        O      tau(  64) = (  -1.5071359  -1.6803265   3.5068060  )
        65        O      tau(  65) = (  -1.5925312  -1.7475536   3.6525075  )
        66        O      tau(  66) = (  -1.6998180  -1.5280816   3.5277071  )
        67        O      tau(  67) = (  -1.5767759  -1.4858840   3.2284891  )
        68        O      tau(  68) = (  -1.4654356  -1.5074971   3.4884986  )
        69        O      tau(  69) = (  -1.5684933  -1.5253043   3.6598048  )
        70        O      tau(  70) = (  -1.6845586  -1.7230005   3.4975772  )
        71        O      tau(  71) = (  -1.5396077  -1.3723717   3.3755432  )
        72        O      tau(  72) = (  -1.4873766  -1.6136387   3.3339301  )
        73        K      tau(  73) = (  -1.1847094  -1.1642892   3.2297025  )
        74        Al     tau(  74) = (  -1.3386740  -0.8255057   2.9808588  )
        75        Al     tau(  75) = (  -1.4342662  -1.9053766   3.2629607  )
        76        Si     tau(  76) = (  -1.3218732  -1.0916727   3.4415086  )
        77        Si     tau(  77) = (  -1.7150401  -1.8945325   3.2879141  )
        78        Si     tau(  78) = (  -1.4619266  -1.0562684   3.2758688  )
        79        Si     tau(  79) = (  -1.5741849  -1.9304489   3.4371001  )
        80        Si     tau(  80) = (  -1.1950372  -0.9608400   3.0794478  )
        81        Si     tau(  81) = (  -1.5779895  -1.7732511   3.1688692  )
        82        O      tau(  82) = (  -0.9493710  -0.8558100   2.9564621  )
        83        O      tau(  83) = (  -1.8206993  -1.8671412   3.2978276  )
        84        O      tau(  84) = (  -1.4769926  -1.1286586   3.1885737  )
        85        O      tau(  85) = (  -1.5545500  -1.0649170   3.3354942  )
        86        O      tau(  86) = (  -1.4926835  -1.9303592   3.3644998  )
        87        O      tau(  87) = (  -1.1183965  -0.9017319   3.0181971  )
        88        O      tau(  88) = (  -1.6695843  -1.8095675   3.2262125  )
        89        O      tau(  89) = (  -1.5855389  -1.7806155   3.0602610  )
        90        O      tau(  90) = (  -1.1761569  -0.9503686   3.1877221  )
        91        O      tau(  91) = (  -1.5909926  -2.0295408   3.4806503  )
        92        O      tau(  92) = (  -1.4355135  -0.9535804   3.2367048  )
        93        O      tau(  93) = (  -1.2861280  -0.9260966   3.0334207  )
        94        O      tau(  94) = (  -1.4816799  -1.8122484   3.2053614  )
        95        O      tau(  95) = (  -1.3742716  -1.0927886   3.3416338  )
        96        O      tau(  96) = (  -1.6672608  -1.8904722   3.3872490  )
        97        K      tau(  97) = (  -1.4350045  -1.0493803   3.0234683  )
        98        K      tau(  98) = (  -1.0561567  -1.4168889   2.7601802  )
        99        K      tau(  99) = (  -1.5858333  -1.5667121   3.0130539  )
       100        Al     tau( 100) = (  -1.3165168  -1.3750865   3.2589030  )
       101        Al     tau( 101) = (  -1.4646721  -1.3404522   2.9760774  )
       102        Si     tau( 102) = (  -1.3297484  -1.1060835   2.8108162  )
       103        Si     tau( 103) = (  -1.1892516  -1.3476226   2.9621340  )
       104        Si     tau( 104) = (  -1.1931986  -1.1408449   2.9777195  )
       105        Si     tau( 105) = (  -1.3177182  -1.3143866   2.7997116  )
       106        Si     tau( 106) = (  -1.4546180  -1.2423230   3.1628299  )
       107        Si     tau( 107) = (  -1.3229967  -1.4811495   3.0732136  )
       108        O      tau( 108) = (  -1.6955307  -1.3533492   3.2872072  )
       109        O      tau( 109) = (  -1.0821279  -1.3719327   2.9555937  )
       110        O      tau( 110) = (  -1.1872548  -1.0792677   3.0686271  )
       111        O      tau( 111) = (  -1.3083246  -1.5957137   3.0534480  )
       112        O      tau( 112) = (  -1.3284124  -1.3862190   2.7140139  )
       113        O      tau( 113) = (  -1.0968292  -1.1289740   2.9205321  )
       114        O      tau( 114) = (  -1.4069233  -1.3243799   2.8658996  )
       115        O      tau( 115) = (  -1.5361091  -1.3096630   3.2052278  )
       116        O      tau( 116) = (  -1.2320190  -1.4266633   3.0311385  )
       117        O      tau( 117) = (  -1.3276375  -1.4711313   3.1842877  )
       118        O      tau( 118) = (  -1.4466608  -1.2467828   3.0488113  )
       119        O      tau( 119) = (  -1.3132142  -1.2092322   2.7598240  )
       120        O      tau( 120) = (  -1.2134015  -1.2462684   3.0086454  )
       121        O      tau( 121) = (  -1.3584187  -1.2709968   3.2091854  )
       122        O      tau( 122) = (  -1.4157860  -1.4443028   3.0263349  )
       123        O      tau( 123) = (  -1.2835368  -1.1091766   2.9144426  )
       124        O      tau( 124) = (  -1.2281862  -1.3472639   2.8550899  )
       125        H      tau( 125) = (  -1.6864085  -1.4131074   3.7378878  )
       126        H      tau( 126) = (  -1.5676028  -1.1409082   3.6812793  )
       127        H      tau( 127) = (  -1.4378034  -1.1770707   3.6930129  )
       128        H      tau( 128) = (  -1.6632459  -2.0344675   3.5755711  )
       129        H      tau( 129) = (  -1.8686474  -1.9492062   3.7393796  )
       130        H      tau( 130) = (  -1.7923695  -1.6379347   3.6865338  )
       131        H      tau( 131) = (  -1.6442035  -1.7075833   3.6758745  )
       132        H      tau( 132) = (  -1.5323345  -1.5341948   3.6056510  )
       133        H      tau( 133) = (  -0.9346359  -0.5515116   2.5426298  )
       134        H      tau( 134) = (  -1.0822110  -0.5351446   2.5716633  )
       135        H      tau( 135) = (  -1.1135903  -0.6743814   2.6667122  )
       136        H      tau( 136) = (  -0.9381048  -0.7915721   2.5089263  )
       137        H      tau( 137) = (  -1.0408916  -1.3267047   2.5436652  )
       138        H      tau( 138) = (  -1.0763055  -1.0765926   2.5512074  )
       139        H      tau( 139) = (  -1.2116925  -1.0602316   2.5843153  )
       140        H      tau( 140) = (  -1.2531232  -1.2063474   2.6531083  )
       141        K      tau( 141) = (  -0.4376382  -0.8967850   2.7454965  )
       142        Al     tau( 142) = (  -0.6719734  -1.6345372   2.7957595  )
       143        Si     tau( 143) = (  -0.5486127  -0.8244102   2.9578369  )
       144        Si     tau( 144) = (  -0.9631841  -1.6346478   2.8151857  )
       145        Si     tau( 145) = (  -0.7010502  -0.8001171   2.8128590  )
       146        Si     tau( 146) = (  -0.8142733  -1.6584071   2.9631471  )
       147        Si     tau( 147) = (  -0.4549184  -0.6885538   2.6203065  )
       148        Si     tau( 148) = (  -0.8225084  -1.5048630   2.6985677  )
       149        O      tau( 149) = (  -1.0680651  -1.6076968   2.8276095  )
       150        O      tau( 150) = (  -0.7131304  -0.8773145   2.7320763  )
       151        O      tau( 151) = (  -0.7822003  -0.8103578   2.8838228  )
       152        O      tau( 152) = (  -0.7226518  -1.6458486   2.9027981  )
       153        O      tau( 153) = (  -0.4017915  -0.6112123   2.5561112  )
       154        O      tau( 154) = (  -0.9139445  -1.5537292   2.7481683  )
       155        O      tau( 155) = (  -0.8324718  -1.5203157   2.5882562  )
       156        O      tau( 156) = (  -0.4196242  -0.6967971   2.7274953  )
       157        O      tau( 157) = (  -0.8160638  -1.7671669   3.0010531  )
       158        O      tau( 158) = (  -0.6925405  -0.6931585   2.7671992  )
       159        O      tau( 159) = (  -0.5704924  -0.6684010   2.6165772  )
       160        O      tau( 160) = (  -0.7191593  -1.5411676   2.7265380  )
       161        O      tau( 161) = (  -0.5972366  -0.8202748   2.8592034  )
       162        O      tau( 162) = (  -0.9126252  -1.6330167   2.9135798  )
       163        Al     tau( 163) = (  -0.5503164  -1.1032821   2.7976855  )
       164        Si     tau( 164) = (  -0.6887106  -0.9830635   2.7022302  )
       165        Si     tau( 165) = (  -0.5950689  -1.2125647   2.6159760  )
       166        O      tau( 166) = (  -0.9346588  -1.0932742   2.8212863  )
       167        O      tau( 167) = (  -0.4381183  -0.7983429   2.5825786  )
       168        O      tau( 168) = (  -0.5681100  -1.3265710   2.5954812  )
       169        O      tau( 169) = (  -0.7621584  -1.0448525   2.7601969  )
       170        O      tau( 170) = (  -0.5378215  -1.1537353   2.5384162  )
       171        O      tau( 171) = (  -0.5762533  -1.1958120   2.7258255  )
       172        O      tau( 172) = (  -0.7083895  -0.9887346   2.5915124  )
       173        O      tau( 173) = (  -0.5844982  -1.0100609   2.7303564  )
       174        O      tau( 174) = (  -0.7032693  -1.1971018   2.5891134  )
       175        O      tau( 175) = (  -1.3114452  -1.9256445   3.6624265  )
       176        Al     tau( 176) = (  -1.1034622  -1.0924301   3.4536374  )
       177        Si     tau( 177) = (  -0.9527882  -1.2326458   3.5393072  )
       178        Si     tau( 178) = (  -1.3088135  -2.0360249   3.6361985  )
       179        O      tau( 179) = (  -1.7078957  -1.1178313   3.4089740  )
       180        O      tau( 180) = (  -1.2342333  -1.4315444   3.6759914  )
       181        O      tau( 181) = (  -0.8623440  -1.1792926   3.4900850  )
       182        O      tau( 182) = (  -1.3620797  -2.0972705   3.7136358  )
       183        O      tau( 183) = (  -1.3557999  -2.0474459   3.5339970  )
       184        O      tau( 184) = (  -0.9407891  -1.2287517   3.6551626  )
       185        O      tau( 185) = (  -1.0445904  -1.1910856   3.4942820  )
       186        O      tau( 186) = (  -1.2056731  -2.0801717   3.6441248  )
       187        K      tau( 187) = (  -1.2136542  -1.3207034   3.4793923  )
       188        K      tau( 188) = (  -0.8220471  -1.6726364   3.2240918  )
       189        K      tau( 189) = (  -1.3484291  -1.8504122   3.4906583  )
       190        Al     tau( 190) = (  -1.2281474  -1.6274872   3.4542274  )
       191        Si     tau( 191) = (  -1.0969611  -1.3811703   3.2771824  )
       192        Si     tau( 192) = (  -0.9539619  -1.6140446   3.4317899  )
       193        Si     tau( 193) = (  -0.9550402  -1.4161838   3.4334654  )
       194        Si     tau( 194) = (  -1.0941646  -1.5819137   3.2765924  )
       195        Si     tau( 195) = (  -1.1868115  -1.5273708   3.6311555  )
       196        Si     tau( 196) = (  -1.0906964  -1.7535749   3.5441164  )
       197        O      tau( 197) = (  -1.8459503  -1.6358113   3.4266857  )
       198        O      tau( 198) = (  -0.9497552  -1.3493046   3.5272785  )
       199        O      tau( 199) = (  -1.0644560  -1.8610283   3.5280523  )
       200        O      tau( 200) = (  -1.0940259  -1.6566629   3.1890134  )
       201        O      tau( 201) = (  -0.8621503  -1.4150230   3.3751592  )
       202        O      tau( 202) = (  -1.1796745  -1.6161651   3.3401921  )
       203        O      tau( 203) = (  -1.2205797  -1.6213018   3.6863056  )
       204        O      tau( 204) = (  -1.0154516  -1.6914027   3.4818693  )
       205        O      tau( 205) = (  -1.0702735  -1.7382662   3.6570440  )
       206        O      tau( 206) = (  -1.2058600  -1.5298078   3.5227588  )
       207        O      tau( 207) = (  -1.0924911  -1.4836997   3.2273369  )
       208        O      tau( 208) = (  -0.9765352  -1.5152333   3.4901908  )
       209        O      tau( 209) = (  -1.0747909  -1.5217551   3.6520455  )
       210        O      tau( 210) = (  -1.1907723  -1.7252815   3.5090603  )
       211        O      tau( 211) = (  -1.0509935  -1.3923191   3.3818943  )
       212        O      tau( 212) = (  -0.9935751  -1.5879083   3.3311136  )
       213        K      tau( 213) = (  -0.6925172  -1.1578763   3.2233960  )
       214        Al     tau( 214) = (  -0.8342508  -0.8246824   2.9917464  )
       215        Al     tau( 215) = (  -0.9365024  -1.9023885   3.2701356  )
       216        Si     tau( 216) = (  -0.8165639  -1.0971658   3.4290903  )
       217        Si     tau( 217) = (  -1.2129797  -1.8970528   3.2811011  )
       218        Si     tau( 218) = (  -0.9605914  -1.0598277   3.2775609  )
       219        Si     tau( 219) = (  -1.0783512  -1.9395069   3.4421209  )
       220        Si     tau( 220) = (  -0.6905972  -0.9546293   3.0766424  )
       221        Si     tau( 221) = (  -1.0712236  -1.7664034   3.1715410  )
       222        O      tau( 222) = (  -1.4430677  -0.8611565   2.9475895  )
       223        O      tau( 223) = (  -1.3228913  -1.8628618   3.2934024  )
       224        O      tau( 224) = (  -0.9654756  -1.1328292   3.1872712  )
       225        O      tau( 225) = (  -1.0441627  -1.0656861   3.3453075  )
       226        O      tau( 226) = (  -0.9907127  -1.9347788   3.3745413  )
       227        O      tau( 227) = (  -0.6057117  -0.8980364   3.0220545  )
       228        O      tau( 228) = (  -1.1595018  -1.8172473   3.2248655  )
       229        O      tau( 229) = (  -1.0744357  -1.7794747   3.0610626  )
       230        O      tau( 230) = (  -0.6850387  -0.9425440   3.1849167  )
       231        O      tau( 231) = (  -1.0931241  -2.0434070   3.4881257  )
       232        O      tau( 232) = (  -0.9442527  -0.9540080   3.2332260  )
       233        O      tau( 233) = (  -0.7894113  -0.9264687   3.0353911  )
       234        O      tau( 234) = (  -0.9833652  -1.7996274   3.2297248  )
       235        O      tau( 235) = (  -0.8617348  -1.0838715   3.3249908  )
       236        O      tau( 236) = (  -1.1779390  -1.9150791   3.3868371  )
       237        K      tau( 237) = (  -0.9463854  -1.0345427   3.0225554  )
       238        K      tau( 238) = (  -0.5531397  -1.4103253   2.7651676  )
       239        K      tau( 239) = (  -1.0886842  -1.5682393   3.0117903  )
       240        Al     tau( 240) = (  -0.8082376  -1.3862404   3.2650592  )
       241        Al     tau( 241) = (  -0.9670135  -1.3468446   2.9816938  )
       242        Si     tau( 242) = (  -0.8247336  -1.1206198   2.8203456  )
       243        Si     tau( 243) = (  -0.6799295  -1.3454290   2.9827402  )
       244        Si     tau( 244) = (  -0.6838192  -1.1364404   2.9714296  )
       245        Si     tau( 245) = (  -0.8280053  -1.3235171   2.8152692  )
       246        Si     tau( 246) = (  -0.9461641  -1.2445395   3.1743241  )
       247        Si     tau( 247) = (  -0.8260326  -1.4781665   3.0779728  )
       248        O      tau( 248) = (  -1.1998791  -1.3441439   3.2826095  )
       249        O      tau( 249) = (  -1.5766458  -1.3817124   2.9658077  )
       250        O      tau( 250) = (  -0.6716514  -1.0676075   3.0595764  )
       251        O      tau( 251) = (  -0.8072893  -1.5897397   3.0535426  )
       252        O      tau( 252) = (  -0.8249757  -1.3955414   2.7269554  )
       253        O      tau( 253) = (  -0.5974556  -1.1167500   2.9054810  )
       254        O      tau( 254) = (  -0.9252078  -1.3249919   2.8682763  )
       255        O      tau( 255) = (  -1.0361544  -1.3027137   3.2261568  )
       256        O      tau( 256) = (  -0.7393536  -1.4137951   3.0497965  )
       257        O      tau( 257) = (  -0.8391622  -1.4750137   3.1873936  )
       258        O      tau( 258) = (  -0.9472490  -1.2536408   3.0611294  )
       259        O      tau( 259) = (  -0.8030794  -1.2215534   2.7714240  )
       260        O      tau( 260) = (  -0.6781972  -1.2389439   3.0189485  )
       261        O      tau( 261) = (  -0.8513704  -1.2816065   3.2271421  )
       262        O      tau( 262) = (  -0.9189396  -1.4557978   3.0252495  )
       263        O      tau( 263) = (  -0.7866708  -1.1378755   2.9272895  )
       264        O      tau( 264) = (  -0.7404395  -1.3561977   2.8851810  )
       265        H      tau( 265) = (  -1.2769250  -1.4406028   3.7249909  )
       266        H      tau( 266) = (  -1.4086811  -2.1462770   3.7028874  )
       267        H      tau( 267) = (  -0.9298459  -1.1636628   3.6739987  )
       268        H      tau( 268) = (  -1.1594341  -2.0541703   3.6062800  )
       269        H      tau( 269) = (  -1.2628959  -1.9016078   3.7053087  )
       270        H      tau( 270) = (  -1.2851883  -1.6419974   3.6876861  )
       271        H      tau( 271) = (  -1.1344719  -1.7171416   3.6814463  )
       272        H      tau( 272) = (  -1.0405968  -1.5138699   3.5952811  )
       273        H      tau( 273) = (  -0.4374927  -0.5538600   2.5587719  )
       274        H      tau( 274) = (  -0.6042646  -0.5274171   2.5724425  )
       275        H      tau( 275) = (  -0.6146097  -0.6912130   2.6640960  )
       276        H      tau( 276) = (  -0.4798084  -0.8213672   2.5331283  )
       277        H      tau( 277) = (  -0.5464821  -1.3334784   2.5303730  )
       278        H      tau( 278) = (  -0.4948194  -1.1084983   2.5607757  )
       279        H      tau( 279) = (  -0.6887403  -1.0452370   2.5616385  )
       280        H      tau( 280) = (  -0.7480296  -1.1933677   2.6398551  )
       281        O      tau( 281) = (  -1.6104261  -2.3403436   4.2509213  )
       282        H      tau( 282) = (  -1.6220690  -2.4013907   4.2728523  )
       283        H      tau( 283) = (  -1.6638731  -2.3410982   4.2068146  )
       284        O      tau( 284) = (  -1.9303048  -2.1153667   4.0916438  )
       285        H      tau( 285) = (  -1.9885848  -2.1410773   4.1120607  )
       286        H      tau( 286) = (  -1.8984753  -2.1226148   4.1571193  )
       287        O      tau( 287) = (  -1.5950849  -1.9859572   4.2773220  )
       288        H      tau( 288) = (  -1.5304093  -1.9950819   4.2748394  )
       289        H      tau( 289) = (  -1.6232994  -2.0513258   4.2904694  )
       290        O      tau( 290) = (  -1.3700438  -1.5563105   4.0996536  )
       291        H      tau( 291) = (  -1.3106716  -1.5179230   4.0975440  )
       292        H      tau( 292) = (  -1.4113748  -1.5197383   4.0619814  )
       293        O      tau( 293) = (  -1.5987789  -1.9593646   4.0877140  )
       294        H      tau( 294) = (  -1.6142345  -1.9791888   4.1501059  )
       295        H      tau( 295) = (  -1.5404392  -1.9284033   4.0945994  )
       296        O      tau( 296) = (  -1.1948510  -1.7147597   4.1695821  )
       297        H      tau( 297) = (  -1.2424515  -1.7212671   4.1227534  )
       298        H      tau( 298) = (  -1.2116060  -1.6634070   4.2111674  )
       299        O      tau( 299) = (  -1.6795927  -1.8418971   4.3622236  )
       300        H      tau( 300) = (  -1.7439834  -1.8580029   4.3432261  )
       301        H      tau( 301) = (  -1.6526803  -1.8984850   4.3335408  )
       302        O      tau( 302) = (  -1.3906422  -1.6804149   3.6839066  )
       303        H      tau( 303) = (  -1.3972726  -1.7242809   3.7345982  )
       304        H      tau( 304) = (  -1.4538063  -1.6673901   3.6637513  )
       305        O      tau( 305) = (  -1.4177593  -1.8094712   3.8313114  )
       306        H      tau( 306) = (  -1.4454332  -1.7700303   3.8785575  )
       307        H      tau( 307) = (  -1.4245732  -1.8727171   3.8445367  )
       308        O      tau( 308) = (  -1.5236158  -1.7071278   3.9515530  )
       309        H      tau( 309) = (  -1.5097601  -1.6691036   4.0088072  )
       310        H      tau( 310) = (  -1.5796766  -1.7455196   3.9666542  )
       311        O      tau( 311) = (  -2.0726719  -1.6480953   4.0509936  )
       312        H      tau( 312) = (  -2.1118595  -1.6651915   4.1045240  )
       313        H      tau( 313) = (  -1.1086561  -1.6070127   4.0146239  )
       314        O      tau( 314) = (  -1.0572782  -1.4529400   3.8151972  )
       315        H      tau( 315) = (  -1.0599120  -1.4632175   3.7486863  )
       316        H      tau( 316) = (  -0.9918142  -1.4268134   3.8210027  )
       317        O      tau( 317) = (  -2.0707702  -2.3454975   4.1448235  )
       318        H      tau( 318) = (  -2.0785548  -2.2848179   4.1184396  )
       319        H      tau( 319) = (  -2.0527744  -2.3826086   4.0871073  )
       320        O      tau( 320) = (  -1.4316219  -2.3156271   4.2902356  )
       321        H      tau( 321) = (  -1.4275642  -2.3024510   4.3560395  )
       322        H      tau( 322) = (  -1.4953842  -2.3334590   4.2777951  )
       323        O      tau( 323) = (  -1.5249379  -1.5450210   3.8396941  )
       324        H      tau( 324) = (  -1.5347691  -1.6100005   3.8687053  )
       325        H      tau( 325) = (  -1.5211171  -1.5606476   3.7774247  )
       326        O      tau( 326) = (  -1.1824278  -1.5678335   3.9229927  )
       327        H      tau( 327) = (  -1.1315514  -1.5456446   3.8782235  )
       328        H      tau( 328) = (  -1.2379919  -1.5455632   3.8898792  )
       329        O      tau( 329) = (  -2.2040146  -2.4749017   4.1833529  )
       330        H      tau( 330) = (  -1.8993226  -1.4816721   4.1878671  )
       331        H      tau( 331) = (  -2.1616349  -2.4272960   4.1723485  )
       332        O      tau( 332) = (  -1.6698732  -2.1604272   4.2584803  )
       333        H      tau( 333) = (  -1.6446263  -2.2213143   4.2706981  )
       334        H      tau( 334) = (  -1.7326959  -2.1561939   4.2756577  )
       335        O      tau( 335) = (  -1.6233540  -2.1001092   3.9578317  )
       336        H      tau( 336) = (  -1.5853530  -2.1524471   3.9840598  )
       337        H      tau( 337) = (  -1.5988719  -2.0463859   3.9938897  )
       338        O      tau( 338) = (  -1.4290347  -1.8771044   4.1262379  )
       339        H      tau( 339) = (  -1.4578615  -1.8179890   4.1448179  )
       340        H      tau( 340) = (  -1.4172768  -1.9143236   4.1793619  )
       341        O      tau( 341) = (  -2.2276235  -2.0101532   4.1906669  )
       342        H      tau( 342) = (  -2.2352450  -1.9811830   4.1250411  )
       343        H      tau( 343) = (  -2.1889734  -1.9636319   4.2227173  )
       344        O      tau( 344) = (  -1.3823301  -2.2101863   4.1292325  )
       345        H      tau( 345) = (  -1.3853086  -2.2365946   4.1937729  )
       346        H      tau( 346) = (  -1.3348687  -2.2426105   4.0971989  )
       347        O      tau( 347) = (  -1.8539279  -1.8447950   4.2725183  )
       348        H      tau( 348) = (  -1.8697011  -1.7823698   4.2830941  )
       349        H      tau( 349) = (  -1.8828814  -1.8626862   4.2145238  )
       350        O      tau( 350) = (  -1.7553607  -1.4181304   4.0028402  )
       351        H      tau( 351) = (  -1.7162080  -1.4582112   4.0354305  )
       352        H      tau( 352) = (  -1.7263228  -1.4084335   3.9403649  )
       353        O      tau( 353) = (  -1.2755442  -2.3312784   3.9765175  )
       354        H      tau( 354) = (  -1.9916204  -1.3477995   3.9672943  )
       355        H      tau( 355) = (  -1.3263134  -2.3231311   3.9292937  )
       356        O      tau( 356) = (  -1.6873481  -1.8284109   3.9843325  )
       357        H      tau( 357) = (  -1.6635440  -1.8809437   4.0204684  )
       358        H      tau( 358) = (  -1.7043074  -1.8464136   3.9205213  )
       359        O      tau( 359) = (  -1.3907519  -2.0599063   4.0179247  )
       360        H      tau( 360) = (  -1.4250765  -2.0998517   4.0585192  )
       361        H      tau( 361) = (  -1.4401487  -2.0296887   3.9819557  )
       362        O      tau( 362) = (  -1.2115857  -1.1984471   3.6648757  )
       363        H      tau( 363) = (  -1.2731123  -1.1824710   3.6853872  )
       364        H      tau( 364) = (  -1.1853092  -1.2411714   3.7128454  )
       365        O      tau( 365) = (  -1.3981602  -2.0261347   4.2517117  )
       366        H      tau( 366) = (  -1.3356597  -2.0301638   4.2257564  )
       367        H      tau( 367) = (  -1.3850769  -2.0393216   4.3156955  )
       368        O      tau( 368) = (  -2.0531903  -1.8233885   3.9715246  )
       369        H      tau( 369) = (  -2.0654960  -1.7599942   3.9964557  )
       370        H      tau( 370) = (  -2.1018306  -1.8242636   3.9270783  )
       371        O      tau( 371) = (  -1.6492025  -1.6743174   4.2963417  )
       372        H      tau( 372) = (  -1.7045040  -1.6368042   4.3026594  )
       373        H      tau( 373) = (  -1.6705492  -1.7366860   4.3198312  )
       374        O      tau( 374) = (  -1.7955322  -1.5509614   4.3012512  )
       375        H      tau( 375) = (  -1.8503059  -1.5742151   4.2752624  )
       376        H      tau( 376) = (  -2.0784989  -2.5479980   4.3459869  )
       377        O      tau( 377) = (  -2.3796650  -2.4946729   4.2274430  )
       378        H      tau( 378) = (  -2.3821500  -2.4375887   4.2664734  )
       379        H      tau( 379) = (  -2.0520511  -1.4614443   4.2095587  )
       380        O      tau( 380) = (  -1.3358301  -1.3041691   3.8910982  )
       381        H      tau( 381) = (  -1.5650082  -2.3385635   3.9479517  )
       382        H      tau( 382) = (  -1.3038924  -1.2657227   3.8466686  )
       383        O      tau( 383) = (  -1.2603329  -1.9322466   4.0273316  )
       384        H      tau( 384) = (  -1.3267856  -1.9263577   4.0270533  )
       385        H      tau( 385) = (  -1.2281388  -1.8799055   4.0055009  )
       386        O      tau( 386) = (  -1.5145964  -2.3215627   4.0480992  )
       387        H      tau( 387) = (  -1.5492942  -2.3443386   4.1003327  )
       388        H      tau( 388) = (  -1.4681065  -2.2775330   4.0758691  )
       389        O      tau( 389) = (  -1.4789157  -1.9894320   3.8593540  )
       390        H      tau( 390) = (  -1.4498723  -2.0308518   3.8155311  )
       391        H      tau( 391) = (  -1.5378267  -1.9669408   3.8379519  )
       392        O      tau( 392) = (  -1.6360270  -1.8995353   3.7940177  )
       393        H      tau( 393) = (  -1.6573410  -1.9400877   3.7489312  )
       394        H      tau( 394) = (  -1.5996107  -1.8576428   3.7593067  )
       395        O      tau( 395) = (  -1.8711315  -1.7075502   3.6641632  )
       396        H      tau( 396) = (  -1.9371012  -1.6882664   3.6611852  )
       397        H      tau( 397) = (  -1.8681653  -1.7496695   3.7177047  )
       398        O      tau( 398) = (  -1.8143126  -2.1371267   3.9367580  )
       399        H      tau( 399) = (  -1.7491374  -2.1230343   3.9616390  )
       400        H      tau( 400) = (  -1.8525344  -2.1297842   3.9925650  )
       401        O      tau( 401) = (  -2.1061560  -2.1614456   4.1175935  )
       402        H      tau( 402) = (  -2.1433885  -2.1314889   4.1643610  )
       403        H      tau( 403) = (  -2.1420975  -2.1443140   4.0637180  )
       404        O      tau( 404) = (  -1.6551412  -2.5212007   4.2663064  )
       405        H      tau( 405) = (  -1.3436377  -1.5067965   4.3006500  )
       406        H      tau( 406) = (  -1.3889860  -1.5052694   4.2021334  )
       407        O      tau( 407) = (  -1.8398058  -1.8084620   3.8256283  )
       408        H      tau( 408) = (  -1.8422558  -1.7533982   3.8673750  )
       409        H      tau( 409) = (  -1.8681782  -1.8597844   3.8579625  )
       410        O      tau( 410) = (  -2.0635089  -1.7133201   4.3512303  )
       411        H      tau( 411) = (  -2.0580719  -1.7823421   4.3590676  )
       412        H      tau( 412) = (  -2.0610866  -1.7037089   4.2852371  )
       413        O      tau( 413) = (  -1.6414197  -1.4018247   3.8441861  )
       414        H      tau( 414) = (  -1.6089223  -1.4613810   3.8405569  )
       415        H      tau( 415) = (  -1.5930207  -1.3551682   3.8508099  )
       416        O      tau( 416) = (  -1.2749071  -1.7537630   3.9826125  )
       417        H      tau( 417) = (  -1.3342619  -1.7722947   3.9635037  )
       418        H      tau( 418) = (  -1.2649721  -1.6883404   3.9688807  )
       419        O      tau( 419) = (  -1.9267944  -1.9884658   3.8516337  )
       420        H      tau( 420) = (  -1.9893268  -2.0079365   3.8628775  )
       421        H      tau( 421) = (  -1.8940243  -2.0428628   3.8757466  )
       422        O      tau( 422) = (  -1.8747131  -2.1495824   4.2803333  )
       423        H      tau( 423) = (  -1.9111177  -2.2042019   4.2974717  )
       424        H      tau( 424) = (  -1.8861095  -2.0976195   4.3264996  )
       425        O      tau( 425) = (  -1.8840008  -1.3816802   3.7928655  )
       426        H      tau( 426) = (  -1.8868356  -1.3264796   3.7584105  )
       427        H      tau( 427) = (  -1.8418447  -1.4173408   3.7503840  )
       428        O      tau( 428) = (  -1.5168286  -1.2636962   3.8845523  )
       429        H      tau( 429) = (  -1.4492176  -1.2706633   3.8926957  )
       430        H      tau( 430) = (  -1.7988730  -2.2514819   3.9140979  )
       431        O      tau( 431) = (  -1.9558728  -1.9075365   4.1148716  )
       432        H      tau( 432) = (  -1.9480816  -1.9760847   4.0953843  )
       433        H      tau( 433) = (  -1.9979101  -1.8796128   4.0635065  )
       434        O      tau( 434) = (  -1.7434368  -2.3203649   4.1421072  )
       435        H      tau( 435) = (  -1.7447147  -2.3671600   4.0938035  )
       436        H      tau( 436) = (  -1.8015205  -2.3157985   4.1741853  )
       437        O      tau( 437) = (  -1.5100434  -1.7028274   4.1493600  )
       438        H      tau( 438) = (  -1.4587760  -1.6619736   4.1582882  )
       439        H      tau( 439) = (  -1.5476259  -1.7062216   4.2069537  )
       440        O      tau( 440) = (  -1.9012225  -1.6602593   3.9445284  )
       441        H      tau( 441) = (  -1.9175310  -1.5953892   3.9565793  )
       442        H      tau( 442) = (  -1.9554940  -1.6961072   3.9433762  )
       443        O      tau( 443) = (  -1.6298937  -1.5250672   4.0952117  )
       444        H      tau( 444) = (  -1.6630046  -1.5843799   4.0749340  )
       445        H      tau( 445) = (  -1.6285731  -1.5298237   4.1600304  )
       446        O      tau( 446) = (  -1.2323985  -1.5746113   4.3064834  )
       447        H      tau( 447) = (  -2.1792027  -1.5255661   4.2905028  )
       448        H      tau( 448) = (  -2.2066313  -1.6143556   4.3541748  )
       449        O      tau( 449) = (  -1.8489066  -2.5254438   4.2782125  )
       450        H      tau( 450) = (  -1.6220043  -1.5291485   4.3082869  )
       451        H      tau( 451) = (  -1.7787966  -2.5278379   4.2912598  )
       452        O      tau( 452) = (  -1.7572089  -1.6661250   4.0752401  )
       453        H      tau( 453) = (  -1.7899596  -1.6636225   4.0141341  )
       454        H      tau( 454) = (  -1.7349566  -1.7297498   4.0810902  )
       455        O      tau( 455) = (  -1.2083393  -1.8639499   3.8018605  )
       456        H      tau( 456) = (  -1.1910640  -1.9244786   3.8293910  )
       457        H      tau( 457) = (  -1.2676700  -1.8388832   3.8344173  )
       458        O      tau( 458) = (  -1.2275433  -2.1195033   3.9732891  )
       459        H      tau( 459) = (  -1.2451449  -2.1836256   3.9602697  )
       460        H      tau( 460) = (  -1.2896154  -2.0918994   3.9897818  )
       461        O      tau( 461) = (  -1.9305917  -1.6338734   4.1773581  )
       462        H      tau( 462) = (  -1.9761472  -1.6286374   4.1293383  )
       463        H      tau( 463) = (  -1.8727573  -1.6620488   4.1509297  )
       464        O      tau( 464) = (  -1.1028090  -1.2772443   3.8088183  )
       465        H      tau( 465) = (  -1.0443431  -1.2642961   3.7790612  )
       466        H      tau( 466) = (  -1.1067703  -1.3441807   3.8018271  )
       467        O      tau( 467) = (  -1.1448338  -2.0327070   3.8292519  )
       468        H      tau( 468) = (  -1.1638030  -2.0618139   3.7720645  )
       469        H      tau( 469) = (  -1.1716786  -2.0701754   3.8798878  )
       470        O      tau( 470) = (  -1.4939846  -1.4264238   4.0027066  )
       471        H      tau( 471) = (  -1.5474789  -1.4661180   4.0206577  )
       472        H      tau( 472) = (  -1.5142766  -1.3724198   3.9640213  )
       473        O      tau( 473) = (  -1.9358646  -1.9935955   4.3560785  )
       474        H      tau( 474) = (  -1.9055081  -1.9351190   4.3381998  )
       475        H      tau( 475) = (  -1.9895710  -1.9918462   4.3157901  )
       476        O      tau( 476) = (  -1.9292723  -1.4738980   3.9843715  )
       477        H      tau( 477) = (  -1.8645937  -1.4516861   3.9959214  )
       478        H      tau( 478) = (  -1.9646312  -1.4665521   4.0411915  )
       479        O      tau( 479) = (  -1.3331284  -1.4794353   3.8361707  )
       480        H      tau( 480) = (  -1.3971713  -1.5068084   3.8334432  )
       481        H      tau( 481) = (  -1.3394384  -1.4178050   3.8646753  )
       482        O      tau( 482) = (  -2.1068853  -1.8854670   4.2477208  )
       483        H      tau( 483) = (  -2.1353934  -1.8325013   4.2145015  )
       484        H      tau( 484) = (  -2.0521888  -1.9070379   4.2064583  )
       485        O      tau( 485) = (  -1.9087006  -2.3402987   4.2464851  )
       486        H      tau( 486) = (  -1.9588073  -2.3379089   4.1962499  )
       487        H      tau( 487) = (  -1.8940326  -2.4063197   4.2576676  )
       488        O      tau( 488) = (  -1.6324365  -2.1607047   3.7504619  )
       489        H      tau( 489) = (  -1.6512201  -2.1424555   3.8145125  )
       490        H      tau( 490) = (  -1.6376076  -2.1011909   3.7149940  )
       491        O      tau( 491) = (  -1.2192235  -1.4618867   4.0841906  )
       492        H      tau( 492) = (  -1.2050134  -1.4296294   4.0264911  )
       493        H      tau( 493) = (  -1.1708588  -1.4520036   4.1333237  )

     number of k points=     1
                       cart. coord. in units 2pi/alat
        k(    1) = (   0.0000000   0.0000000   0.0000000), wk =   2.0000000

     Dense  grid:  3184389 G-vectors     FFT dimensions: ( 192, 200, 480)

     Estimated max dynamical RAM per process >     493.86 MB

     Estimated total dynamical RAM >      57.87 GB

     WARNING: libxc functional with ID  263 depends
      on external parameters: check the user_guide of
      QE if you need to modify them or to check their
      default values.

     Initial potential from superposition of free atoms

     starting charge    2103.6163, renormalised to    2104.0000
     Starting wfcs are 1530 randomized atomic wfcs

     total cpu time spent up to now is       34.3 secs

     Self-consistent Calculation

     iteration #  1     ecut=   110.00 Ry     beta= 0.50
     Davidson diagonalization with overlap
     ethr =  1.00E-02,  avg # of iterations =  2.0

     total cpu time spent up to now is      109.7 secs

     total energy              =  -11162.57547359 Ry
     estimated scf accuracy    <    4089.16089478 Ry

     iteration #  2     ecut=   110.00 Ry     beta= 0.50
     Davidson diagonalization with overlap
     ethr =  1.00E-02,  avg # of iterations =  2.0

     total cpu time spent up to now is      174.7 secs

     total energy              =  -11182.17815361 Ry
     estimated scf accuracy    <     541.67032634 Ry

     iteration #  3     ecut=   110.00 Ry     beta= 0.50
     Davidson diagonalization with overlap
     ethr =  1.00E-02,  avg # of iterations =  1.0

     total cpu time spent up to now is      227.3 secs

     total energy              =  -11183.77854984 Ry
     estimated scf accuracy    <      50.07047289 Ry

     iteration #  4     ecut=   110.00 Ry     beta= 0.50
     Davidson diagonalization with overlap
     ethr =  2.38E-03,  avg # of iterations =  1.0

     total cpu time spent up to now is      280.2 secs

     total energy              =  -11183.91897428 Ry
     estimated scf accuracy    <       0.82796470 Ry

     iteration #  5     ecut=   110.00 Ry     beta= 0.50
     Davidson diagonalization with overlap
     ethr =  3.94E-05,  avg # of iterations =  2.0

     total cpu time spent up to now is      335.7 secs

     total energy              =  -11183.95597690 Ry
     estimated scf accuracy    <       0.03241265 Ry

     iteration #  6     ecut=   110.00 Ry     beta= 0.50
     Davidson diagonalization with overlap
     ethr =  1.54E-06,  avg # of iterations =  3.0

     total cpu time spent up to now is      407.0 secs

     total energy              =  -11183.96242506 Ry
     estimated scf accuracy    <       0.00548150 Ry

     iteration #  7     ecut=   110.00 Ry     beta= 0.50
     Davidson diagonalization with overlap
     ethr =  2.61E-07,  avg # of iterations =  2.0

     total cpu time spent up to now is      472.7 secs

     total energy              =  -11183.96303772 Ry
     estimated scf accuracy    <       0.00222306 Ry

     iteration #  8     ecut=   110.00 Ry     beta= 0.50
     Davidson diagonalization with overlap
     ethr =  1.06E-07,  avg # of iterations =  2.0

     total cpu time spent up to now is      535.4 secs

     total energy              =  -11183.96322939 Ry
     estimated scf accuracy    <       0.00058893 Ry

     iteration #  9     ecut=   110.00 Ry     beta= 0.50
     Davidson diagonalization with overlap
     ethr =  2.80E-08,  avg # of iterations =  2.0

     total cpu time spent up to now is      594.5 secs

     total energy              =  -11183.96327109 Ry
     estimated scf accuracy    <       0.00006355 Ry

     iteration # 10     ecut=   110.00 Ry     beta= 0.50
     Davidson diagonalization with overlap
     ethr =  3.02E-09,  avg # of iterations =  4.0

     total cpu time spent up to now is      656.8 secs

     total energy              =  -11183.96327735 Ry
     estimated scf accuracy    <       0.00000681 Ry

     iteration # 11     ecut=   110.00 Ry     beta= 0.50
     Davidson diagonalization with overlap
     ethr =  3.24E-10,  avg # of iterations =  4.0

     total cpu time spent up to now is      731.1 secs

     total energy              =  -11183.96327883 Ry
     estimated scf accuracy    <       0.00000211 Ry

     iteration # 12     ecut=   110.00 Ry     beta= 0.50
     Davidson diagonalization with overlap
     ethr =  1.00E-10,  avg # of iterations =  2.0

     total cpu time spent up to now is      786.5 secs

     End of self-consistent calculation

          k = 0.0000 0.0000 0.0000 (398025 PWs)   bands (ev):

  -103.8792-103.8090-103.7509-103.7311-103.6862-103.6385-103.5570-103.5151
  -103.4392-103.4293-103.4289-103.3526-103.3155-103.2054-103.1135-103.0054
   -63.4451 -63.3992 -63.3638 -63.3538 -63.3257 -63.3164 -63.2900 -63.2864
   -63.2632 -63.2613 -63.2602 -63.2568 -63.2472 -63.2424 -63.2159 -63.1912
   -63.1902 -63.1785 -63.1176 -63.0912 -63.0833 -63.0780 -63.0698 -63.0673
   -63.0338 -63.0177 -63.0143 -63.0036 -63.0027 -63.0026 -62.9608 -62.9544
   -62.9451 -62.9211 -62.9041 -62.8869 -62.8671 -62.8637 -62.7984 -62.7894
   -62.7462 -62.7374 -62.7323 -62.7139 -62.7040 -62.6119 -62.5806 -62.5530
   -29.1583 -28.9769 -28.9608 -28.9164 -28.8636 -28.8352 -28.8308 -28.7972
   -28.7685 -28.7225 -28.5985 -28.5242 -28.5019 -28.4063 -28.3272 -28.2558
   -21.2953 -21.2541 -21.2299 -21.1731 -21.1508 -21.0466 -21.0322 -20.9657
   -20.9355 -20.9303 -20.8876 -20.8825 -20.8779 -20.8755 -20.8579 -20.7680
   -20.7572 -20.7508 -20.7393 -20.7363 -20.7117 -20.7049 -20.6816 -20.6557
   -20.6330 -20.6059 -20.5969 -20.5825 -20.5759 -20.5645 -20.5558 -20.5188
   -20.5008 -20.4919 -20.4794 -20.4730 -20.4612 -20.4400 -20.4369 -20.4319
   -20.4230 -20.4098 -20.3779 -20.3610 -20.3506 -20.3360 -20.3290 -20.3114
   -20.2981 -20.2868 -20.2780 -20.2346 -20.2330 -20.2093 -20.1901 -20.1776
   -20.1564 -20.1505 -20.1480 -20.1300 -20.1242 -20.1003 -20.0886 -20.0681
   -20.0426 -20.0404 -20.0358 -20.0276 -20.0252 -20.0038 -19.9992 -19.9918
   -19.9760 -19.9685 -19.9649 -19.9568 -19.9491 -19.9367 -19.9249 -19.9071
   -19.9013 -19.8842 -19.8752 -19.8699 -19.8593 -19.8472 -19.8423 -19.8280
   -19.8243 -19.8192 -19.8123 -19.7970 -19.7837 -19.7690 -19.7455 -19.7139
   -19.7077 -19.6977 -19.6854 -19.6682 -19.6549 -19.6494 -19.6373 -19.6253
   -19.6214 -19.5992 -19.5863 -19.5844 -19.5737 -19.5606 -19.5308 -19.5186
   -19.5028 -19.4968 -19.4847 -19.4809 -19.4719 -19.4619 -19.4365 -19.4323
   -19.4275 -19.4207 -19.4113 -19.4102 -19.4066 -19.3934 -19.3910 -19.3854
   -19.3707 -19.3627 -19.3516 -19.3337 -19.3251 -19.3096 -19.3081 -19.3006
   -19.2942 -19.2891 -19.2585 -19.2556 -19.2418 -19.2366 -19.2212 -19.2024
   -19.1938 -19.1869 -19.1825 -19.1783 -19.1632 -19.1453 -19.1428 -19.1142
   -19.1099 -19.1056 -19.0976 -19.0885 -19.0836 -19.0706 -19.0681 -19.0445
   -19.0297 -19.0100 -19.0029 -19.0019 -18.9967 -18.9772 -18.9490 -18.9433
   -18.9212 -18.9077 -18.9047 -18.8692 -18.8441 -18.8393 -18.8304 -18.8252
   -18.8097 -18.8065 -18.8014 -18.7877 -18.7712 -18.7641 -18.7388 -18.7379
   -18.7279 -18.7217 -18.7039 -18.6948 -18.6910 -18.6833 -18.6828 -18.6660
   -18.6577 -18.6451 -18.6335 -18.6294 -18.6114 -18.6017 -18.5782 -18.5376
   -18.5183 -18.5062 -18.4843 -18.4768 -18.4723 -18.4613 -18.4325 -18.4162
   -18.4087 -18.4045 -18.3911 -18.3541 -18.3376 -18.3058 -18.2882 -18.2854
   -18.2761 -18.2626 -18.2519 -18.2461 -18.2005 -18.1917 -18.1885 -18.1423
   -18.1322 -18.1227 -18.1154 -18.0627 -17.9932 -17.8527 -17.7901 -11.7159
   -11.6753 -11.6439 -11.5568 -11.5492 -11.5185 -11.5157 -11.4999 -11.4903
   -11.4605 -11.4487 -11.4484 -11.4256 -11.4206 -11.4195 -11.4002 -11.3947
   -11.3911 -11.3902 -11.3591 -11.3575 -11.3554 -11.3377 -11.3293 -11.3260
   -11.3149 -11.3131 -11.2972 -11.2723 -11.2464 -11.2065 -11.1640 -11.1342
   -11.1217 -11.0858 -11.0712 -11.0674 -11.0343 -11.0106 -10.9975 -10.9683
   -10.9411 -10.9295 -10.8536 -10.8507 -10.8319 -10.7932 -10.7746  -9.5956
    -9.4176  -9.3442  -9.1589  -9.1498  -9.0050  -8.9964  -8.9723  -8.7525
    -8.7469  -8.7198  -8.6269  -8.6002  -8.5311  -8.4677  -8.3847  -8.3273
    -8.3056  -8.2626  -8.1777  -8.1714  -8.1470  -8.1181  -8.0919  -8.0866
    -8.0524  -8.0324  -7.9934  -7.9404  -7.8982  -7.8910  -7.8064  -7.7667
    -7.7441  -7.6690  -7.6573  -7.6470  -7.6163  -7.5637  -7.5449  -7.5283
    -7.5258  -7.4986  -7.4318  -7.3916  -7.3445  -7.3372  -7.2962  -7.2712
    -7.2523  -7.2373  -7.2265  -7.2037  -7.1890  -7.1771  -7.1603  -7.1473
    -7.1407  -7.1364  -7.1207  -7.1039  -7.0895  -7.0732  -7.0569  -7.0425
    -7.0372  -7.0167  -7.0062  -7.0021  -6.9846  -6.9179  -6.9155  -6.8979
    -6.8861  -6.8669  -6.8584  -6.8372  -6.8248  -6.8018  -6.7972  -6.7735
    -6.7673  -6.7525  -6.7456  -6.7394  -6.7292  -6.7131  -6.6938  -6.6815
    -6.6740  -6.6644  -6.6600  -6.6294  -6.6280  -6.6218  -6.5949  -6.5853
    -6.5749  -6.5705  -6.5590  -6.5467  -6.5387  -6.5185  -6.5122  -6.5060
    -6.4947  -6.4811  -6.4753  -6.4624  -6.4563  -6.4461  -6.4223  -6.3941
    -6.3854  -6.3841  -6.3613  -6.3505  -6.3448  -6.3266  -6.2981  -6.2807
    -6.2751  -6.2595  -6.2490  -6.2418  -6.2117  -6.2061  -6.1829  -6.1793
    -6.1725  -6.1654  -6.1605  -6.1524  -6.1280  -6.1208  -6.1090  -6.1028
    -6.1022  -6.0722  -6.0617  -6.0526  -6.0337  -6.0280  -6.0171  -5.9935
    -5.9852  -5.9820  -5.9703  -5.9489  -5.9464  -5.9107  -5.9071  -5.9023
    -5.8806  -5.8720  -5.8293  -5.8206  -5.8062  -5.7855  -5.7731  -5.7599
    -5.7373  -5.7300  -5.7018  -5.6766  -5.6620  -5.6303  -5.6015  -5.5972
    -5.5941  -5.5681  -5.5546  -5.5330  -5.4862  -5.4788  -5.4635  -5.4532
    -5.2726  -5.2545  -5.2349  -5.2023  -5.1995  -5.1834  -5.1731  -5.1372
    -5.1073  -5.0964  -5.0812  -5.0586  -5.0256  -4.9993  -4.9743  -4.9654
    -4.9416  -4.9004  -4.8982  -4.8694  -4.8630  -4.8345  -4.8197  -4.8114
    -4.7970  -4.7687  -4.7419  -4.7164  -4.7115  -4.6751  -4.6565  -4.6416
    -4.6372  -4.6241  -4.6177  -4.6048  -4.5906  -4.5839  -4.5536  -4.5314
    -4.5281  -4.5125  -4.4860  -4.4740  -4.4658  -4.4561  -4.4466  -4.4283
    -4.4258  -4.4121  -4.4042  -4.4010  -4.3844  -4.3700  -4.3534  -4.3345
    -4.3115  -4.2996  -4.2720  -4.2351  -4.2099  -4.2077  -4.1768  -4.1732
    -4.1516  -4.1321  -4.1220  -4.1060  -4.1021  -4.0791  -4.0748  -4.0333
    -4.0204  -4.0013  -3.9873  -3.9799  -3.9603  -3.9420  -3.9355  -3.9207
    -3.9072  -3.8961  -3.8918  -3.8644  -3.8473  -3.8425  -3.8179  -3.8113
    -3.7754  -3.7584  -3.7342  -3.7289  -3.7183  -3.7115  -3.7085  -3.6969
    -3.6960  -3.6801  -3.6734  -3.6517  -3.6447  -3.6300  -3.6201  -3.6039
    -3.5995  -3.5934  -3.5926  -3.5826  -3.5747  -3.5635  -3.5303  -3.5232
    -3.5025  -3.5009  -3.4810  -3.4782  -3.4562  -3.4493  -3.4394  -3.4352
    -3.4238  -3.4180  -3.4056  -3.3854  -3.3780  -3.3472  -3.3324  -3.3156
    -3.3071  -3.2977  -3.2875  -3.2761  -3.2707  -3.2636  -3.2470  -3.2366
    -3.2331  -3.2310  -3.2198  -3.2030  -3.1987  -3.1887  -3.1809  -3.1750
    -3.1589  -3.1479  -3.1454  -3.1395  -3.1291  -3.1210  -3.1134  -3.1060
    -3.0941  -3.0919  -3.0898  -3.0718  -3.0560  -3.0465  -3.0384  -3.0332
    -3.0241  -3.0178  -3.0076  -2.9954  -2.9858  -2.9828  -2.9653  -2.9542
    -2.9525  -2.9445  -2.9401  -2.9356  -2.9241  -2.9147  -2.9080  -2.9043
    -2.8821  -2.8644  -2.8612  -2.8591  -2.8418  -2.8374  -2.8281  -2.8224
    -2.8147  -2.8107  -2.8065  -2.7997  -2.7939  -2.7822  -2.7694  -2.7626
    -2.7554  -2.7424  -2.7383  -2.7297  -2.7242  -2.7096  -2.7042  -2.7021
    -2.6920  -2.6753  -2.6716  -2.6481  -2.6401  -2.6365  -2.6244  -2.6167
    -2.6057  -2.5995  -2.5877  -2.5721  -2.5618  -2.5512  -2.5441  -2.5389
    -2.5321  -2.5221  -2.5147  -2.5104  -2.4911  -2.4842  -2.4792  -2.4691
    -2.4645  -2.4520  -2.4432  -2.4362  -2.4249  -2.4226  -2.4157  -2.4051
    -2.3940  -2.3824  -2.3785  -2.3579  -2.3478  -2.3412  -2.3295  -2.3267
    -2.3186  -2.3069  -2.3026  -2.2929  -2.2788  -2.2715  -2.2601  -2.2585
    -2.2452  -2.2352  -2.2301  -2.2287  -2.2204  -2.2080  -2.2061  -2.1952
    -2.1909  -2.1842  -2.1800  -2.1685  -2.1585  -2.1519  -2.1456  -2.1394
    -2.1311  -2.1247  -2.1070  -2.0988  -2.0913  -2.0895  -2.0759  -2.0623
    -2.0478  -2.0448  -2.0366  -2.0325  -2.0194  -2.0153  -2.0099  -2.0008
    -1.9925  -1.9878  -1.9776  -1.9698  -1.9575  -1.9573  -1.9552  -1.9442
    -1.9367  -1.9253  -1.9210  -1.8974  -1.8863  -1.8739  -1.8711  -1.8512
    -1.8431  -1.8317  -1.8250  -1.8147  -1.8076  -1.8007  -1.7948  -1.7766
    -1.7713  -1.7637  -1.7532  -1.7462  -1.7422  -1.7366  -1.7296  -1.7276
    -1.7198  -1.7107  -1.6995  -1.6931  -1.6791  -1.6716  -1.6705  -1.6588
    -1.6534  -1.6489  -1.6357  -1.6300  -1.6267  -1.6206  -1.6132  -1.6098
    -1.5993  -1.5898  -1.5861  -1.5814  -1.5724  -1.5622  -1.5614  -1.5524
    -1.5513  -1.5395  -1.5234  -1.5162  -1.5079  -1.4999  -1.4917  -1.4862
    -1.4803  -1.4699  -1.4608  -1.4589  -1.4537  -1.4412  -1.4352  -1.4284
    -1.4159  -1.4102  -1.4063  -1.4037  -1.3971  -1.3917  -1.3852  -1.3839
    -1.3791  -1.3758  -1.3628  -1.3583  -1.3507  -1.3353  -1.3334  -1.3231
    -1.3162  -1.3041  -1.2980  -1.2927  -1.2814  -1.2803  -1.2709  -1.2637
    -1.2573  -1.2542  -1.2501  -1.2388  -1.2295  -1.2207  -1.2119  -1.2093
    -1.1998  -1.1962  -1.1955  -1.1911  -1.1866  -1.1822  -1.1772  -1.1727
    -1.1645  -1.1581  -1.1558  -1.1520  -1.1487  -1.1389  -1.1370  -1.1253
    -1.1131  -1.1048  -1.1024  -1.1017  -1.0880  -1.0813  -1.0747  -1.0684
    -1.0655  -1.0592  -1.0562  -1.0488  -1.0431  -1.0362  -1.0236  -1.0093
    -1.0049  -0.9960  -0.9890  -0.9776  -0.9766  -0.9728  -0.9657  -0.9567
    -0.9531  -0.9470  -0.9388  -0.9280  -0.9187  -0.9148  -0.9111  -0.8992
    -0.8904  -0.8841  -0.8755  -0.8561  -0.8431  -0.8376  -0.8327  -0.8281
    -0.8206  -0.8172  -0.8096  -0.8050  -0.7999  -0.7922  -0.7885  -0.7756
    -0.7593  -0.7549  -0.7441  -0.7378  -0.7286  -0.7209  -0.7180  -0.7115
    -0.7042  -0.6996  -0.6972  -0.6833  -0.6819  -0.6730  -0.6691  -0.6643
    -0.6588  -0.6463  -0.6398  -0.6344  -0.6227  -0.6163  -0.6038  -0.5932
    -0.5916  -0.5872  -0.5840  -0.5757  -0.5502  -0.5455  -0.5361  -0.5351
    -0.5246  -0.5161  -0.5082  -0.5002  -0.4908  -0.4824  -0.4775  -0.4696
    -0.4655  -0.4531  -0.4513  -0.4442  -0.4411  -0.4292  -0.4221  -0.4028
    -0.4012  -0.3902  -0.3883  -0.3744  -0.3467  -0.3388  -0.3208  -0.3178
    -0.2817  -0.2597  -0.2515  -0.2436  -0.1979  -0.0839  -0.0777  -0.0650
    -0.0307  -0.0249   0.0998   0.1045

     highest occupied level (ev):     0.1045

!    total energy              =  -11183.96327894 Ry
     estimated scf accuracy    <       0.00000027 Ry

     The total energy is the sum of the following terms:
     one-electron contribution =  -20150.29596897 Ry
     hartree contribution      =   10723.43846870 Ry
     xc contribution           =   -2313.89965902 Ry
     ewald contribution        =     556.79388035 Ry

     convergence has been achieved in  12 iterations

     Forces acting on atoms (cartesian axes, Ry/au):

     atom    1 type  1   force =    -0.00539169   -0.01032880    0.00411704
     atom    2 type  2   force =     0.02077535   -0.03024318    0.02442560
     atom    3 type  3   force =    -0.03134422   -0.03227970    0.00872267
     atom    4 type  3   force =     0.01941713   -0.04287194    0.03484018
     atom    5 type  3   force =     0.02762457   -0.05958718   -0.03824591
     atom    6 type  3   force =     0.04618319   -0.02272862    0.01388307
     atom    7 type  3   force =     0.03673559   -0.08841566   -0.03287181
     atom    8 type  3   force =    -0.00757548    0.10132517    0.04617820
     atom    9 type  4   force =    -0.05340760    0.01236224   -0.00094523
     atom   10 type  4   force =     0.02138393   -0.03605054   -0.00025926
     atom   11 type  4   force =    -0.05327931    0.01532748    0.07788295
     atom   12 type  4   force =     0.00976973    0.00411423   -0.02585709
     atom   13 type  4   force =     0.00779894    0.03019530    0.02862692
     atom   14 type  4   force =    -0.00474296   -0.00900012   -0.01773443
     atom   15 type  4   force =    -0.00815971    0.01796107   -0.01840597
     atom   16 type  4   force =     0.02289405    0.00987870    0.03566046
     atom   17 type  4   force =    -0.02199004    0.03908283   -0.01548922
     atom   18 type  4   force =     0.01005427    0.05602894    0.05464796
     atom   19 type  4   force =    -0.00218067    0.01821583   -0.06237751
     atom   20 type  4   force =    -0.00360335    0.02603181   -0.01585170
     atom   21 type  4   force =     0.01570200    0.02744955    0.00609382
     atom   22 type  4   force =    -0.04575609   -0.00007458   -0.03220833
     atom   23 type  2   force =    -0.01641371   -0.07407701    0.00637254
     atom   24 type  3   force =    -0.05942948    0.05512288    0.04179072
     atom   25 type  3   force =    -0.01247123    0.04197173    0.01264546
     atom   26 type  4   force =    -0.02520350   -0.02578407   -0.02629810
     atom   27 type  4   force =    -0.03594151    0.06231590    0.07785896
     atom   28 type  4   force =     0.01638611   -0.02749573    0.00594367
     atom   29 type  4   force =     0.06462963    0.00124808   -0.02831208
     atom   30 type  4   force =     0.01306656   -0.00332710    0.01104953
     atom   31 type  4   force =     0.00108076   -0.00863379   -0.03398705
     atom   32 type  4   force =     0.02503119   -0.07889404    0.01257704
     atom   33 type  4   force =    -0.05705051    0.07711372   -0.07487265
     atom   34 type  4   force =    -0.02335762    0.02918140    0.01252928
     atom   35 type  4   force =    -0.03245096   -0.04922989    0.08019043
     atom   36 type  2   force =     0.02083081    0.01304366   -0.03874663
     atom   37 type  3   force =     0.05310893   -0.03285910    0.02119339
     atom   38 type  3   force =    -0.04115133    0.04605923   -0.02746786
     atom   39 type  4   force =    -0.02030244    0.01675526    0.00583351
     atom   40 type  4   force =     0.01155148   -0.00792223   -0.00011871
     atom   41 type  4   force =    -0.02748679   -0.02216985   -0.00303397
     atom   42 type  4   force =     0.03643409   -0.00712457   -0.00215985
     atom   43 type  4   force =     0.01767752   -0.04395434    0.04788602
     atom   44 type  4   force =    -0.01748189    0.02554132    0.01707128
     atom   45 type  4   force =    -0.03248061    0.02555785   -0.00475440
     atom   46 type  4   force =     0.00962410   -0.00025975   -0.02152460
     atom   47 type  1   force =     0.00098009    0.00527827   -0.01467669
     atom   48 type  1   force =     0.01306237   -0.00357712    0.00617098
     atom   49 type  1   force =    -0.00569084   -0.00788139    0.00084009
     atom   50 type  2   force =     0.01203295   -0.04413018    0.00467589
     atom   51 type  3   force =     0.03025983    0.07111622    0.09033652
     atom   52 type  3   force =    -0.03519358   -0.02594840   -0.01527870
     atom   53 type  3   force =    -0.08867293   -0.00753057    0.09517554
     atom   54 type  3   force =    -0.07843656    0.01523379    0.00682090
     atom   55 type  3   force =     0.03915538   -0.02465688    0.02565511
     atom   56 type  3   force =     0.06015800   -0.05714841   -0.06243466
     atom   57 type  4   force =    -0.00797558    0.03260900    0.01058292
     atom   58 type  4   force =     0.00160167    0.00660565   -0.04899850
     atom   59 type  4   force =    -0.00827403   -0.01927359   -0.04931297
     atom   60 type  4   force =     0.01914390    0.05522684    0.04168696
     atom   61 type  4   force =     0.09282930    0.02578730   -0.08299639
     atom   62 type  4   force =     0.03861225    0.00836453   -0.06218530
     atom   63 type  4   force =     0.01574774    0.01091181   -0.01063762
     atom   64 type  4   force =     0.00948479    0.00462640    0.00244505
     atom   65 type  4   force =    -0.03910427    0.03486494    0.11317470
     atom   66 type  4   force =    -0.01793912    0.02082710    0.00250981
     atom   67 type  4   force =     0.01138561   -0.07428015   -0.00228131
     atom   68 type  4   force =     0.02251254    0.01085027   -0.05022528
     atom   69 type  4   force =    -0.07233612   -0.00317320    0.03469043
     atom   70 type  4   force =    -0.07067520    0.04723806   -0.03330951
     atom   71 type  4   force =    -0.02774340   -0.02194877   -0.03066248
     atom   72 type  4   force =     0.02324732    0.00369032    0.02161589
     atom   73 type  1   force =    -0.00697402    0.00698743    0.00541808
     atom   74 type  2   force =     0.13487450   -0.00570299   -0.01306904
     atom   75 type  2   force =     0.04064571    0.03130154    0.02560566
     atom   76 type  3   force =     0.03794799   -0.00314226   -0.03627638
     atom   77 type  3   force =    -0.00369840    0.00186240   -0.06290244
     atom   78 type  3   force =    -0.00747275   -0.04778206    0.04142713
     atom   79 type  3   force =     0.01201617    0.12427205    0.02111944
     atom   80 type  3   force =     0.05795596   -0.01605504   -0.00534522
     atom   81 type  3   force =    -0.01281171    0.01591590    0.02636627
     atom   82 type  4   force =     0.02549831   -0.00723731    0.01041709
     atom   83 type  4   force =    -0.05258683   -0.01822927   -0.00518263
     atom   84 type  4   force =     0.02173560   -0.04199516   -0.01407331
     atom   85 type  4   force =     0.00846417    0.02323935   -0.00457892
     atom   86 type  4   force =     0.01556007   -0.00794561    0.00146043
     atom   87 type  4   force =     0.05200213   -0.01474625    0.00191920
     atom   88 type  4   force =     0.00237800   -0.04090624   -0.01187871
     atom   89 type  4   force =    -0.02139064   -0.01910429   -0.06577190
     atom   90 type  4   force =    -0.00645900   -0.03980828   -0.01704112
     atom   91 type  4   force =    -0.01210426   -0.07719767    0.03886712
     atom   92 type  4   force =    -0.00591470    0.03205896    0.01883014
     atom   93 type  4   force =    -0.09760730    0.02554441   -0.01906389
     atom   94 type  4   force =    -0.01189830    0.02034625    0.01213653
     atom   95 type  4   force =     0.00222697    0.00952345   -0.01780786
     atom   96 type  4   force =     0.00515234   -0.03049562    0.03839045
     atom   97 type  1   force =    -0.00634219    0.00642614   -0.00993880
     atom   98 type  1   force =    -0.00504298    0.00541400    0.00311807
     atom   99 type  1   force =     0.01147024   -0.00717737    0.00920303
     atom  100 type  2   force =    -0.00349775   -0.01940511    0.00673027
     atom  101 type  2   force =     0.08122540   -0.04441326   -0.01780999
     atom  102 type  3   force =     0.00359816   -0.00813454    0.02864571
     atom  103 type  3   force =    -0.00420072    0.01210366    0.01681674
     atom  104 type  3   force =     0.02531167   -0.00051020   -0.09919456
     atom  105 type  3   force =    -0.08225357   -0.04347988    0.00505597
     atom  106 type  3   force =    -0.00252134    0.03594285   -0.02470769
     atom  107 type  3   force =    -0.01155405   -0.01500670    0.00784700
     atom  108 type  4   force =     0.02631617   -0.01606950   -0.00734230
     atom  109 type  4   force =     0.01341043   -0.00559374    0.00059507
     atom  110 type  4   force =    -0.00344493    0.08777726    0.03676217
     atom  111 type  4   force =    -0.01266404    0.04605868    0.01521542
     atom  112 type  4   force =     0.01095387   -0.07629287   -0.03470654
     atom  113 type  4   force =    -0.02944990   -0.00057447    0.02712893
     atom  114 type  4   force =    -0.04534393    0.00154144    0.03419056
     atom  115 type  4   force =    -0.01488788    0.02269523   -0.02284159
     atom  116 type  4   force =    -0.00367302   -0.01003770   -0.01086367
     atom  117 type  4   force =     0.01239572    0.01121834    0.00458183
     atom  118 type  4   force =    -0.02836520    0.01354609    0.05550028
     atom  119 type  4   force =     0.00540668    0.05319559   -0.00422503
     atom  120 type  4   force =     0.00575020   -0.03639188    0.00761812
     atom  121 type  4   force =     0.01785559   -0.02877551    0.03312809
     atom  122 type  4   force =    -0.01970743    0.01966497   -0.02237399
     atom  123 type  4   force =     0.01769091   -0.00590737    0.00335697
     atom  124 type  4   force =     0.06059285   -0.00104234    0.04407894
     atom  125 type  5   force =    -0.01756894    0.01918781   -0.00012662
     atom  126 type  5   force =    -0.01663368    0.02469104   -0.00510956
     atom  127 type  5   force =     0.00211918   -0.02433528   -0.00606116
     atom  128 type  5   force =    -0.00984050   -0.00177078    0.02449010
     atom  129 type  5   force =     0.01709261    0.01353778   -0.08015412
     atom  130 type  5   force =     0.01202330    0.00091404   -0.00730665
     atom  131 type  5   force =     0.02296109   -0.01154916    0.00042253
     atom  132 type  5   force =     0.02520625    0.00714437   -0.04040006
     atom  133 type  5   force =     0.01006844   -0.03864552   -0.00290482
     atom  134 type  5   force =    -0.00374747   -0.01629328   -0.00305769
     atom  135 type  5   force =    -0.03378546   -0.02235152    0.02383208
     atom  136 type  5   force =     0.01423035   -0.01200449   -0.03719127
     atom  137 type  5   force =     0.00507609   -0.00417075   -0.02132908
     atom  138 type  5   force =     0.00289990   -0.01642593    0.00721004
     atom  139 type  5   force =    -0.00152487    0.04159297   -0.01191125
     atom  140 type  5   force =     0.00618997   -0.01050632   -0.00538868
     atom  141 type  1   force =     0.01168488    0.01862154    0.00324376
     atom  142 type  2   force =    -0.00285482   -0.02138956   -0.08575722
     atom  143 type  3   force =     0.00850822   -0.04599239    0.04047939
     atom  144 type  3   force =     0.02613733    0.01046787   -0.08020961
     atom  145 type  3   force =     0.06763006    0.01328221   -0.01425077
     atom  146 type  3   force =     0.00942656   -0.02146780    0.03995171
     atom  147 type  3   force =    -0.05392077   -0.04972952    0.00365511
     atom  148 type  3   force =     0.04273979   -0.01338370    0.03066763
     atom  149 type  4   force =    -0.03120445    0.01280699    0.00751128
     atom  150 type  4   force =    -0.00357846    0.02940785   -0.01799037
     atom  151 type  4   force =    -0.02079544    0.02406952    0.00585123
     atom  152 type  4   force =     0.00020138    0.00693495   -0.00108910
     atom  153 type  4   force =    -0.02170470   -0.00550077    0.01380020
     atom  154 type  4   force =    -0.01158079   -0.03333160    0.01816432
     atom  155 type  4   force =     0.00893844    0.06604905   -0.01600651
     atom  156 type  4   force =     0.01116021    0.06300006    0.02100815
     atom  157 type  4   force =    -0.00465226    0.06475032    0.02247251
     atom  158 type  4   force =     0.00742250   -0.03039213    0.01115167
     atom  159 type  4   force =     0.01694525   -0.00037679    0.01929114
     atom  160 type  4   force =    -0.01768362   -0.03183427    0.04848988
     atom  161 type  4   force =    -0.03874826    0.00450616   -0.07057472
     atom  162 type  4   force =     0.02483591   -0.01270146    0.03377081
     atom  163 type  2   force =     0.03636986   -0.01063669   -0.00294908
     atom  164 type  3   force =     0.00708732    0.01664998   -0.01474335
     atom  165 type  3   force =     0.00055837   -0.07872084    0.02469055
     atom  166 type  4   force =     0.11460530    0.00581056    0.00749975
     atom  167 type  4   force =    -0.02533792    0.00306742   -0.03188995
     atom  168 type  4   force =     0.01372247    0.04724672   -0.03814295
     atom  169 type  4   force =    -0.04986829   -0.05028406    0.05698955
     atom  170 type  4   force =     0.00726393    0.01586281    0.00001926
     atom  171 type  4   force =     0.01693511   -0.03026708   -0.03049234
     atom  172 type  4   force =     0.00405021    0.01009803    0.00589155
     atom  173 type  4   force =    -0.00126237    0.02546063   -0.00184237
     atom  174 type  4   force =    -0.02695408    0.01578479    0.01370362
     atom  175 type  4   force =     0.00869758   -0.01657058   -0.02064148
     atom  176 type  2   force =     0.03958027    0.00961485   -0.01675631
     atom  177 type  3   force =     0.00981364   -0.05310100    0.02064744
     atom  178 type  3   force =    -0.07316237    0.00977966   -0.01328092
     atom  179 type  4   force =    -0.06217614   -0.00418882    0.03667253
     atom  180 type  4   force =     0.05261477   -0.01163414   -0.06185174
     atom  181 type  4   force =    -0.01521903   -0.02689184    0.02062321
     atom  182 type  4   force =    -0.02746801   -0.00728383    0.04398584
     atom  183 type  4   force =     0.00308383    0.00071440   -0.00019474
     atom  184 type  4   force =     0.01114160    0.04216873   -0.02232171
     atom  185 type  4   force =    -0.01782529   -0.00291244    0.00309567
     atom  186 type  4   force =     0.00634464   -0.03172085    0.03426985
     atom  187 type  1   force =     0.00034670   -0.00393216    0.02230399
     atom  188 type  1   force =    -0.00217200   -0.00511094    0.00886450
     atom  189 type  1   force =     0.00439480    0.00664146    0.00184186
     atom  190 type  2   force =    -0.00666549    0.03267490   -0.04640995
     atom  191 type  3   force =     0.05072093   -0.00932180    0.01405061
     atom  192 type  3   force =    -0.01996097    0.05695162    0.05530129
     atom  193 type  3   force =    -0.00144428   -0.01708475    0.09880701
     atom  194 type  3   force =     0.00466074   -0.12351147    0.02350700
     atom  195 type  3   force =    -0.02335869    0.01458409    0.07107594
     atom  196 type  3   force =     0.05204972    0.01931600    0.03454015
     atom  197 type  4   force =     0.01208621   -0.01646730   -0.00593267
     atom  198 type  4   force =     0.01460260    0.07198539   -0.03138392
     atom  199 type  4   force =    -0.01420625   -0.08690194   -0.06515833
     atom  200 type  4   force =     0.02409459    0.03424297   -0.00134466
     atom  201 type  4   force =     0.02083487    0.01657801   -0.03646189
     atom  202 type  4   force =     0.00208341    0.03557061    0.01369428
     atom  203 type  4   force =     0.01961554    0.01164259    0.00149602
     atom  204 type  4   force =     0.00512659   -0.03843555    0.02275190
     atom  205 type  4   force =    -0.08682553    0.02539310   -0.02815119
     atom  206 type  4   force =    -0.01459723    0.00003870   -0.04281922
     atom  207 type  4   force =    -0.01721183    0.06849387   -0.02415182
     atom  208 type  4   force =     0.03939193   -0.02464806   -0.02948787
     atom  209 type  4   force =    -0.02062110    0.00724169    0.00072882
     atom  210 type  4   force =    -0.00689183   -0.03266145    0.01467278
     atom  211 type  4   force =    -0.04861588    0.01535744   -0.04355118
     atom  212 type  4   force =    -0.01442418   -0.01427962   -0.04828308
     atom  213 type  1   force =    -0.00036309    0.00254729    0.00923968
     atom  214 type  2   force =    -0.03494716   -0.03510710   -0.06713609
     atom  215 type  2   force =     0.02222036   -0.01335752    0.02745074
     atom  216 type  3   force =     0.03725159    0.02393341   -0.01953305
     atom  217 type  3   force =    -0.09154595    0.01337285    0.02090893
     atom  218 type  3   force =     0.04947263    0.03271392   -0.05432219
     atom  219 type  3   force =    -0.01260406    0.05893890    0.00697056
     atom  220 type  3   force =     0.03625112   -0.00405397   -0.03058161
     atom  221 type  3   force =    -0.04433209    0.00865450    0.04915636
     atom  222 type  4   force =    -0.09769310   -0.01212824   -0.02031475
     atom  223 type  4   force =     0.04483896   -0.02493841   -0.01318430
     atom  224 type  4   force =    -0.00699643    0.02323877    0.03637031
     atom  225 type  4   force =    -0.07303265   -0.01730201    0.04620613
     atom  226 type  4   force =    -0.00117783   -0.00770407   -0.00466396
     atom  227 type  4   force =    -0.00865607   -0.00941583    0.02597568
     atom  228 type  4   force =    -0.00523752   -0.01714479   -0.02071318
     atom  229 type  4   force =     0.01535362    0.03505460    0.03792211
     atom  230 type  4   force =     0.02057239    0.01196887    0.04821816
     atom  231 type  4   force =     0.00180589    0.00112197   -0.01284107
     atom  232 type  4   force =    -0.00791944   -0.04287542   -0.02443627
     atom  233 type  4   force =    -0.00710991   -0.01994824    0.00935839
     atom  234 type  4   force =     0.02356631    0.02486938   -0.02492347
     atom  235 type  4   force =     0.01894289   -0.02053669    0.04183387
     atom  236 type  4   force =     0.05474163    0.00061582    0.03752846
     atom  237 type  1   force =    -0.00173880   -0.01068173    0.00283962
     atom  238 type  1   force =    -0.00932088    0.00226339   -0.01150759
     atom  239 type  1   force =     0.00265066   -0.00287326    0.01342027
     atom  240 type  2   force =    -0.04297018   -0.02585229    0.04198994
     atom  241 type  2   force =     0.02296066   -0.01069497    0.01419783
     atom  242 type  3   force =    -0.01732661    0.00819500   -0.03229865
     atom  243 type  3   force =    -0.05900676    0.00010275   -0.05358180
     atom  244 type  3   force =     0.04093495   -0.01590011    0.02701453
     atom  245 type  3   force =     0.05458438   -0.04152154    0.00494130
     atom  246 type  3   force =     0.00513062   -0.05897236    0.00819130
     atom  247 type  3   force =    -0.02075228   -0.04866497    0.00923431
     atom  248 type  4   force =    -0.03989956    0.00347896    0.01972125
     atom  249 type  4   force =    -0.02733102    0.00504440   -0.01140713
     atom  250 type  4   force =    -0.03055715    0.03069318    0.00642574
     atom  251 type  4   force =     0.02414102   -0.01215247   -0.00665744
     atom  252 type  4   force =    -0.01875129    0.02162802    0.00904492
     atom  253 type  4   force =    -0.03183896   -0.00817768    0.00648982
     atom  254 type  4   force =     0.01051974   -0.00252909    0.01812786
     atom  255 type  4   force =     0.04105576    0.04160760   -0.05500441
     atom  256 type  4   force =     0.04589477    0.00766841    0.00860844
     atom  257 type  4   force =     0.01796257    0.00350139    0.04307044
     atom  258 type  4   force =    -0.00476569   -0.04433531    0.02536378
     atom  259 type  4   force =    -0.01621104    0.01626084   -0.00845737
     atom  260 type  4   force =    -0.00004081   -0.02338051    0.01817684
     atom  261 type  4   force =    -0.06954879    0.05521735   -0.05287026
     atom  262 type  4   force =    -0.05933313    0.07203938   -0.05270356
     atom  263 type  4   force =    -0.02989083    0.05551476   -0.03405670
     atom  264 type  4   force =    -0.00066526    0.02848478   -0.02111084
     atom  265 type  5   force =    -0.03759105   -0.01574777    0.04544503
     atom  266 type  5   force =     0.01468575    0.00393148   -0.02001333
     atom  267 type  5   force =    -0.00981498   -0.02412445   -0.00927588
     atom  268 type  5   force =     0.05132796    0.02052501   -0.04273148
     atom  269 type  5   force =    -0.00938446    0.00114717    0.00930724
     atom  270 type  5   force =    -0.00972391    0.01116935   -0.00865723
     atom  271 type  5   force =     0.07892379   -0.00398230   -0.00804421
     atom  272 type  5   force =     0.02894928    0.00228572   -0.02248205
     atom  273 type  5   force =     0.00941675   -0.00274758   -0.00883815
     atom  274 type  5   force =    -0.02123959   -0.04926833   -0.01616590
     atom  275 type  5   force =     0.03827699    0.01116849   -0.02241302
     atom  276 type  5   force =     0.03068469    0.03315469    0.03119363
     atom  277 type  5   force =    -0.01861514   -0.00109006    0.05414011
     atom  278 type  5   force =     0.00502622    0.00664407   -0.00090814
     atom  279 type  5   force =    -0.00596492   -0.00702286   -0.00372638
     atom  280 type  5   force =     0.01471957   -0.01246764   -0.01315626
     atom  281 type  4   force =     0.02292650    0.02574258   -0.00521727
     atom  282 type  5   force =     0.00312421   -0.05670049    0.03172352
     atom  283 type  5   force =    -0.01193472    0.03609762   -0.02417146
     atom  284 type  4   force =     0.07964084    0.00369027    0.10413403
     atom  285 type  5   force =    -0.04505811   -0.00109724   -0.02492749
     atom  286 type  5   force =    -0.01862553    0.01211856   -0.08057122
     atom  287 type  4   force =    -0.09255090   -0.06644757    0.02476098
     atom  288 type  5   force =     0.06079988   -0.01083320   -0.00331903
     atom  289 type  5   force =     0.03514094    0.05366923   -0.03201103
     atom  290 type  4   force =     0.01826439    0.00449748    0.01348672
     atom  291 type  5   force =    -0.00837088   -0.02109487   -0.01281785
     atom  292 type  5   force =    -0.01136911    0.01116960   -0.01507552
     atom  293 type  4   force =    -0.03544067   -0.00748361   -0.03507769
     atom  294 type  5   force =    -0.00124296   -0.00233547    0.01618233
     atom  295 type  5   force =     0.04596609    0.02055622    0.00813173
     atom  296 type  4   force =     0.01242731   -0.00222233    0.01614636
     atom  297 type  5   force =    -0.00922701   -0.00163566   -0.00566920
     atom  298 type  5   force =    -0.01402712   -0.00465145    0.00165897
     atom  299 type  4   force =    -0.05717077   -0.06602176   -0.02934551
     atom  300 type  5   force =     0.02425651    0.03138845    0.01928979
     atom  301 type  5   force =     0.03378085    0.02705839    0.00575588
     atom  302 type  4   force =    -0.02109895    0.00763591    0.00012731
     atom  303 type  5   force =    -0.00584327   -0.01523280    0.00113380
     atom  304 type  5   force =     0.01539092   -0.00715997    0.00330613
     atom  305 type  4   force =     0.04451376    0.09653427   -0.02958808
     atom  306 type  5   force =    -0.01966190   -0.01573608    0.00809072
     atom  307 type  5   force =    -0.02588283   -0.07552214    0.02018398
     atom  308 type  4   force =    -0.01722170    0.03179029    0.04475458
     atom  309 type  5   force =    -0.02217997   -0.05164187   -0.04567251
     atom  310 type  5   force =     0.02448707    0.01669686   -0.00095104
     atom  311 type  4   force =     0.05467192   -0.03892978    0.04616292
     atom  312 type  5   force =    -0.01078378   -0.00509092   -0.01417951
     atom  313 type  5   force =    -0.04261390    0.03785243   -0.03549506
     atom  314 type  4   force =     0.04459736    0.03549685    0.02372671
     atom  315 type  5   force =    -0.00175662   -0.02435847   -0.01668180
     atom  316 type  5   force =    -0.04250867   -0.03154389    0.00232929
     atom  317 type  4   force =     0.03505925   -0.06015553   -0.06494120
     atom  318 type  5   force =    -0.02120089    0.03938004    0.00796899
     atom  319 type  5   force =    -0.00709320    0.02150867    0.04526354
     atom  320 type  4   force =     0.04319037   -0.00707631    0.02219070
     atom  321 type  5   force =    -0.00293820   -0.00187227   -0.01271361
     atom  322 type  5   force =    -0.03088074    0.01049234   -0.00832942
     atom  323 type  4   force =    -0.00830115   -0.08277406    0.11382027
     atom  324 type  5   force =     0.01277353    0.07346036   -0.00895316
     atom  325 type  5   force =    -0.00443225   -0.00499998   -0.10730526
     atom  326 type  4   force =     0.04295232    0.01750775   -0.07503343
     atom  327 type  5   force =    -0.04720342   -0.01996103    0.04749021
     atom  328 type  5   force =     0.00093975    0.00174744    0.01067402
     atom  329 type  4   force =    -0.04352729   -0.07070806    0.00893379
     atom  330 type  5   force =    -0.00054908   -0.03126979   -0.00026397
     atom  331 type  5   force =     0.04899676    0.09718267   -0.01440307
     atom  332 type  4   force =     0.06852116    0.04698769   -0.00642169
     atom  333 type  5   force =    -0.01224883   -0.01341420    0.00783311
     atom  334 type  5   force =    -0.06103075   -0.02116452    0.01268036
     atom  335 type  4   force =     0.04884315   -0.04653937    0.03828941
     atom  336 type  5   force =    -0.04294857    0.04259227   -0.02613074
     atom  337 type  5   force =    -0.02702677   -0.01456329   -0.00774731
     atom  338 type  4   force =    -0.01797322    0.02575371   -0.04137573
     atom  339 type  5   force =     0.01043356   -0.00498373    0.00056184
     atom  340 type  5   force =     0.00887612   -0.01907306    0.03888500
     atom  341 type  4   force =    -0.00809704    0.01110437   -0.05662527
     atom  342 type  5   force =     0.00352058   -0.02518270    0.05331566
     atom  343 type  5   force =    -0.00466050   -0.00939109   -0.00259279
     atom  344 type  4   force =    -0.03644896   -0.00555787    0.06006202
     atom  345 type  5   force =    -0.00008490    0.01549576   -0.04753368
     atom  346 type  5   force =     0.03716546   -0.02525860   -0.01563134
     atom  347 type  4   force =     0.00750472   -0.04283668    0.00546830
     atom  348 type  5   force =    -0.01946566    0.04764092    0.00552466
     atom  349 type  5   force =    -0.00666089    0.00084306   -0.02131352
     atom  350 type  4   force =    -0.04735199    0.05538013   -0.08027482
     atom  351 type  5   force =     0.06263759   -0.05223816    0.04939518
     atom  352 type  5   force =    -0.00717581   -0.00047932    0.03058434
     atom  353 type  4   force =    -0.05834741    0.06936729   -0.01336825
     atom  354 type  5   force =     0.02363463   -0.04579054   -0.00820099
     atom  355 type  5   force =     0.04142535   -0.01122292    0.02408489
     atom  356 type  4   force =    -0.00372235    0.02271761   -0.02092817
     atom  357 type  5   force =    -0.00247294   -0.00697638   -0.01449688
     atom  358 type  5   force =     0.01236619   -0.00506274    0.03224925
     atom  359 type  4   force =    -0.05172638    0.01820317   -0.01499232
     atom  360 type  5   force =     0.01291250   -0.01737328    0.02691847
     atom  361 type  5   force =     0.02642343   -0.00265698   -0.01637301
     atom  362 type  4   force =     0.03231476   -0.03108900    0.00932118
     atom  363 type  5   force =    -0.00944661    0.00050260    0.00850382
     atom  364 type  5   force =    -0.01156403    0.02484011   -0.02317890
     atom  365 type  4   force =    -0.02895195   -0.00471214    0.01579140
     atom  366 type  5   force =     0.02898931    0.00841786   -0.02178626
     atom  367 type  5   force =    -0.00670672    0.00341944    0.01181517
     atom  368 type  4   force =     0.00804312    0.05517999    0.03419272
     atom  369 type  5   force =     0.01361358   -0.01667613    0.01103731
     atom  370 type  5   force =    -0.02479190   -0.02524718   -0.04356141
     atom  371 type  4   force =    -0.01563370   -0.02879815    0.00246936
     atom  372 type  5   force =    -0.00313469    0.00821918   -0.00601118
     atom  373 type  5   force =     0.03336336    0.01832641   -0.00653562
     atom  374 type  4   force =     0.04573087    0.05947966    0.05981409
     atom  375 type  5   force =    -0.06532707   -0.02973361   -0.02900198
     atom  376 type  5   force =     0.01689881   -0.03552157   -0.03372769
     atom  377 type  4   force =    -0.01999203    0.00449781    0.04721592
     atom  378 type  5   force =     0.00863529   -0.01592255   -0.03344595
     atom  379 type  5   force =     0.01869311    0.02161888    0.01026077
     atom  380 type  4   force =    -0.00318475    0.01905556   -0.02095703
     atom  381 type  5   force =     0.01364729    0.00463054    0.03601810
     atom  382 type  5   force =    -0.00177302   -0.00272379   -0.01107190
     atom  383 type  4   force =     0.01317806   -0.07629662    0.01437549
     atom  384 type  5   force =    -0.00099040    0.02077242    0.00530904
     atom  385 type  5   force =     0.00025950    0.05210220   -0.01119407
     atom  386 type  4   force =     0.02539831    0.04217847    0.00506786
     atom  387 type  5   force =    -0.00433054   -0.00507493    0.01174588
     atom  388 type  5   force =    -0.01950561   -0.01933156   -0.01107678
     atom  389 type  4   force =     0.04472786    0.00218813    0.03875440
     atom  390 type  5   force =    -0.00241210   -0.00208781   -0.01575710
     atom  391 type  5   force =    -0.02896250    0.00313464   -0.02143206
     atom  392 type  4   force =     0.01789604    0.00703890    0.08424849
     atom  393 type  5   force =    -0.04584664   -0.05335850   -0.06483380
     atom  394 type  5   force =     0.02598826    0.04647129   -0.02793957
     atom  395 type  4   force =    -0.03474250    0.01250202   -0.00318665
     atom  396 type  5   force =     0.02625197   -0.01359780    0.00977654
     atom  397 type  5   force =    -0.00211658   -0.00916840    0.00399394
     atom  398 type  4   force =     0.06072882    0.01954230    0.04581136
     atom  399 type  5   force =    -0.05604099   -0.00657237   -0.03291962
     atom  400 type  5   force =    -0.00814026   -0.00724539    0.00221643
     atom  401 type  4   force =     0.00107229   -0.01364930    0.01543117
     atom  402 type  5   force =    -0.00390137    0.01126191    0.01923201
     atom  403 type  5   force =    -0.01264850    0.00654342   -0.03436659
     atom  404 type  4   force =    -0.03591323    0.00460861   -0.02585782
     atom  405 type  5   force =     0.02301679   -0.02478956    0.00661434
     atom  406 type  5   force =     0.00205644    0.00943125    0.03223561
     atom  407 type  4   force =     0.02592662    0.04705887    0.02324373
     atom  408 type  5   force =    -0.00797163   -0.03959125   -0.02143003
     atom  409 type  5   force =    -0.01357353   -0.00216024    0.00580158
     atom  410 type  4   force =    -0.00388130   -0.04236366   -0.03614421
     atom  411 type  5   force =    -0.00653486    0.07146149   -0.01310493
     atom  412 type  5   force =     0.00291251    0.00118569   -0.00711503
     atom  413 type  4   force =    -0.03177213   -0.00415014   -0.01427832
     atom  414 type  5   force =     0.01815841   -0.00581308    0.01122066
     atom  415 type  5   force =     0.00800305    0.01820947   -0.00043862
     atom  416 type  4   force =     0.07211998    0.02783693    0.03437221
     atom  417 type  5   force =    -0.05311365    0.00087678   -0.01845104
     atom  418 type  5   force =    -0.00595647   -0.01016644   -0.01317849
     atom  419 type  4   force =     0.02694263   -0.01726629    0.02025102
     atom  420 type  5   force =    -0.03497120    0.01379778   -0.01513167
     atom  421 type  5   force =     0.02063948    0.01146446   -0.00776669
     atom  422 type  4   force =    -0.00563466    0.02606189    0.02024847
     atom  423 type  5   force =     0.01927075    0.00794194   -0.00100010
     atom  424 type  5   force =    -0.00731650   -0.03844562   -0.03945222
     atom  425 type  4   force =     0.04471222   -0.06493340   -0.01906662
     atom  426 type  5   force =    -0.01448913    0.06192589   -0.02878781
     atom  427 type  5   force =    -0.02797317    0.01542876    0.03941838
     atom  428 type  4   force =     0.01158076   -0.05346926   -0.00125565
     atom  429 type  5   force =    -0.01420685    0.00343415   -0.00907988
     atom  430 type  5   force =    -0.00778835    0.02726435    0.00393347
     atom  431 type  4   force =    -0.04747042   -0.05210907   -0.05712429
     atom  432 type  5   force =    -0.00678755    0.07091544    0.02200730
     atom  433 type  5   force =     0.05065016   -0.03221431    0.04562796
     atom  434 type  4   force =     0.05178917    0.01653550   -0.03339240
     atom  435 type  5   force =    -0.02353723   -0.01113133    0.00419211
     atom  436 type  5   force =    -0.04175701   -0.01436227    0.01324430
     atom  437 type  4   force =    -0.02942262   -0.03554890    0.02053381
     atom  438 type  5   force =     0.01784247    0.02320921    0.01487512
     atom  439 type  5   force =     0.01239217    0.02569779   -0.02387297
     atom  440 type  4   force =     0.06719928    0.02582055   -0.00727952
     atom  441 type  5   force =    -0.00950625    0.00562987   -0.00343948
     atom  442 type  5   force =    -0.04671425   -0.02398949    0.00339004
     atom  443 type  4   force =    -0.03567070   -0.05367238   -0.11044944
     atom  444 type  5   force =     0.02213562    0.04523327    0.02664260
     atom  445 type  5   force =     0.01719994    0.00909608    0.07673629
     atom  446 type  4   force =     0.07975217    0.05573347   -0.02189353
     atom  447 type  5   force =    -0.06725855   -0.06915126    0.01290304
     atom  448 type  5   force =     0.00412718    0.00706643    0.00254561
     atom  449 type  4   force =     0.03093538    0.00636325    0.00597256
     atom  450 type  5   force =     0.04970002    0.01764404   -0.00035634
     atom  451 type  5   force =    -0.07414862   -0.01786916   -0.00806908
     atom  452 type  4   force =    -0.01430920    0.00156909   -0.02020109
     atom  453 type  5   force =     0.00744230   -0.01572201    0.04035433
     atom  454 type  5   force =    -0.00273422    0.00967231   -0.01929856
     atom  455 type  4   force =    -0.08422794    0.04802969    0.04242461
     atom  456 type  5   force =    -0.00667540   -0.00081090   -0.00613209
     atom  457 type  5   force =     0.08799269   -0.04175727   -0.04415447
     atom  458 type  4   force =    -0.02012131   -0.03615057   -0.00139836
     atom  459 type  5   force =     0.01537634    0.00291350   -0.00019933
     atom  460 type  5   force =     0.02596709    0.00363339   -0.00669743
     atom  461 type  4   force =     0.07412228   -0.01076182    0.04117856
     atom  462 type  5   force =    -0.01341297   -0.00488551   -0.04002089
     atom  463 type  5   force =    -0.04364548    0.02655464   -0.00585534
     atom  464 type  4   force =    -0.01704109    0.03303327   -0.00752094
     atom  465 type  5   force =     0.00506566    0.01137270   -0.00853784
     atom  466 type  5   force =     0.00455270   -0.03651478    0.01106491
     atom  467 type  4   force =     0.01032049   -0.00518457    0.02163399
     atom  468 type  5   force =    -0.00045112   -0.00062060   -0.00801193
     atom  469 type  5   force =    -0.00621490    0.00576607   -0.00156211
     atom  470 type  4   force =    -0.01582276    0.02728269   -0.00282343
     atom  471 type  5   force =     0.01492030    0.03441679   -0.00458896
     atom  472 type  5   force =     0.00219488   -0.04239622    0.02058851
     atom  473 type  4   force =    -0.01920876    0.01873230   -0.00522357
     atom  474 type  5   force =     0.00669332   -0.00513040    0.00710107
     atom  475 type  5   force =     0.00152702   -0.01081364    0.00369089
     atom  476 type  4   force =    -0.00265731    0.00580317    0.00001380
     atom  477 type  5   force =    -0.01860700   -0.00519176   -0.00109660
     atom  478 type  5   force =     0.01960562   -0.00161726    0.00183011
     atom  479 type  4   force =    -0.04188812   -0.02774177   -0.01259141
     atom  480 type  5   force =     0.04208207    0.02457946    0.01175642
     atom  481 type  5   force =    -0.00541603   -0.00822075   -0.00534452
     atom  482 type  4   force =     0.05520697   -0.00232941   -0.04831525
     atom  483 type  5   force =     0.01366394   -0.01630404    0.01306711
     atom  484 type  5   force =    -0.05894372    0.03820474    0.02696335
     atom  485 type  4   force =    -0.02547909    0.00471569   -0.05393115
     atom  486 type  5   force =     0.03567323   -0.01691655    0.05950281
     atom  487 type  5   force =    -0.00849845    0.01494917   -0.00169538
     atom  488 type  4   force =    -0.00347428    0.04742666    0.05339118
     atom  489 type  5   force =     0.01999873   -0.01579496   -0.03459967
     atom  490 type  5   force =    -0.00814288   -0.03127448    0.00358274
     atom  491 type  4   force =     0.01314669   -0.00324074    0.00047622
     atom  492 type  5   force =     0.00379949   -0.01361096    0.02853904
     atom  493 type  5   force =    -0.02548122    0.00944239   -0.02483775

     Total force =     1.254012     Total SCF correction =     0.000391
     Message from routine punch:
     Nothing written, as per user request (disk_io='none')

     init_run     :     33.07s CPU     33.81s WALL (       1 calls)
     electrons    :    741.30s CPU    752.26s WALL (       1 calls)
     forces       :      8.52s CPU      8.83s WALL (       1 calls)

     Called by init_run:
     wfcinit      :     29.72s CPU     30.25s WALL (       1 calls)
     potinit      :      0.25s CPU      0.36s WALL (       1 calls)
     hinit0       :      2.08s CPU      2.11s WALL (       1 calls)

     Called by electrons:
     c_bands      :    619.93s CPU    628.90s WALL (      12 calls)
     sum_band     :    118.17s CPU    119.24s WALL (      12 calls)
     v_of_rho     :      2.65s CPU      3.45s WALL (      13 calls)
     mix_rho      :      0.50s CPU      0.68s WALL (      12 calls)

     Called by c_bands:
     init_us_2    :      1.50s CPU      1.61s WALL (      25 calls)
     init_us_2:cp :      1.50s CPU      1.61s WALL (      25 calls)
     regterg      :    616.97s CPU    624.73s WALL (      12 calls)

     Called by *egterg:
     rdiaghg      :      6.31s CPU      6.84s WALL (      39 calls)
     h_psi        :    545.45s CPU    550.94s WALL (      40 calls)
     g_psi        :      0.16s CPU      0.16s WALL (      27 calls)

     Called by h_psi:
     h_psi:calbec :     40.24s CPU     41.27s WALL (      40 calls)
     vloc_psi     :    117.92s CPU    118.93s WALL (      40 calls)
     add_vuspsi   :     35.64s CPU     36.17s WALL (      40 calls)
     h_psi_meta   :    351.06s CPU    353.98s WALL (      40 calls)

     General routines
     calbec       :     45.96s CPU     47.11s WALL (      44 calls)
     fft          :      3.36s CPU      3.99s WALL (     129 calls)
     ffts         :      0.16s CPU      0.25s WALL (      24 calls)
     fftw         :    562.17s CPU    566.75s WALL (  150336 calls)
     interpolate  :      0.00s CPU      0.00s WALL (      13 calls)

     Parallel routines

     PWSCF        :  13m 3.10s CPU  13m15.54s WALL


   This run was terminated on:  11:57: 8   9Mar2025            

=------------------------------------------------------------------------------=
   JOB DONE.
=------------------------------------------------------------------------------=
