LAMMPS data file via write_data, version 2 Aug 2023, timestep = 100000, units = metal

1728 atoms
1 atom types

0.02306874221122257 33.01720765293957 xlo xhi
0.02306874221122257 33.01720765293957 ylo yhi
0.02306874221122257 33.01720765293957 zlo zhi

Masses

1 28

Atoms # atomic

5 1 1.528273731287231 1.5128877919101762 1.299680980887881 0 0 0
3 1 2.7124066091894656 0.025985097209265007 2.755719471193924 0 0 0
7 1 4.094810025814148 1.2690864432998785 4.082119873183026 0 0 0
2 1 0.047828038451314114 2.832918803851867 2.716186106317667 0 0 0
10 1 5.355060271403842 2.695438252419671 2.792405062345695 0 0 0
13 1 6.918283948679594 1.4114591082264967 1.3236344134019047 0 0 0
11 1 8.268919682833808 0.03337210606079566 2.795045317257212 0 1 0
578 1 11.035654413098655 2.744098581861445 2.8097249915551625 0 0 0
581 1 12.335390101766661 1.3456277571972526 1.4111071794395897 0 0 0
15 1 9.703517880318504 1.2981672778735498 4.127772409756369 0 0 0
12 1 8.339325455243316 2.7968418875390646 0.07875710334576524 0 0 0
584 1 15.100150017771917 4.085815572800344 1.3607772914797318 0 0 0
580 1 13.62642310245429 2.797602388156839 0.14706643800379027 0 0 1
586 1 16.530884521989364 2.7130928843251967 2.7672071091139188 0 0 0
589 1 17.85312757332453 1.259876379697127 1.4638474365579615 0 0 0
588 1 19.271672872010715 2.6936633433946855 0.10063693488604031 0 0 0
590 1 17.887739356641976 4.090135880549791 4.06433113163095 0 0 0
1154 1 22.05701997241155 2.7814327862111563 2.6704453986193077 0 0 0
1157 1 23.33193374693803 1.352965878605898 1.335483480806557 0 0 0
591 1 20.759715391460908 1.4142692907649994 4.078903726314496 0 0 0
1155 1 24.68829286651375 0.08734875447272117 2.7673237005921014 0 0 0
1162 1 27.54793182823214 2.83300007440576 2.700303121255871 0 0 0
1160 1 26.214056934321164 4.073120119665834 1.2545566486363084 0 0 0
1159 1 26.139943408277485 1.4735617669444079 4.091105517760253 0 0 0
1165 1 28.93379152128995 1.5020187191710053 1.3475539445321398 0 0 0
1167 1 31.56114074117555 1.5154538941162004 4.005146735542311 0 0 0
1 1 32.96861429551733 0.08178710101385889 0.02817472057589137 -1 1 0
19 1 2.9652980417045147 5.520277138920706 2.739721845869676 0 0 0
21 1 1.491924355193181 6.816839864058655 1.3992632372763703 0 0 0
6 1 1.4038468674647915 4.18239691871963 4.133454003817606 0 0 0
18 1 0.14070941530034276 8.252758198914453 2.7363440067633156 1 0 0
8 1 4.178828789936803 4.1649275207978915 1.3624331472783218 0 0 0
29 1 6.810385370345312 6.869589914297169 1.355914949159654 0 0 0
26 1 5.416734573895184 8.259965967403055 2.865135301998412 0 0 0
27 1 8.191609978206264 5.529704990757718 2.7406026967389208 0 0 0
28 1 8.231373632982264 8.228728819537077 0.05786737437626499 0 0 1
16 1 9.688642421067073 4.295371086893669 1.4105414172739843 0 0 0
31 1 9.64560094881755 6.836145931229852 4.127412247414107 0 0 0
597 1 12.334355721664043 6.776332141327919 1.4165306981633587 0 0 0
594 1 10.983617153208874 8.232623797932035 2.763048896574244 0 0 0
595 1 13.73433696051693 5.413335931860435 2.792534632771471 0 0 0
602 1 16.47640209826918 8.122628421728962 2.6420623110900388 0 0 0
603 1 19.294652205728994 5.4841122454414055 2.8293054430365228 0 0 0
605 1 17.96441389372201 6.847378731811832 1.3964341322654532 0 0 0
592 1 20.64416812558697 4.216357976584432 1.3987836140785 0 0 0
1158 1 23.411150137959506 4.158707819277106 4.1000609999673685 0 0 0
607 1 20.70388297169226 6.7501055364907385 4.089776999858398 0 0 0
1173 1 23.336613899961925 6.8787352334566325 1.469129920014124 0 0 0
1171 1 24.787015750828438 5.472667237571054 2.694893079912311 0 0 0
1181 1 28.854245779403943 6.870282024026072 1.3697688161896477 0 0 0
1175 1 26.134641446041996 6.826022589650469 4.103483376973453 0 0 0
1178 1 27.4815865146431 8.224889437754236 2.7291479885101717 0 0 0
1168 1 31.712617527830535 4.267494116033063 1.3916089654399024 0 0 0
1179 1 30.22232329160741 5.690055855733757 2.8034419991806234 0 0 0
1183 1 31.708727476740314 7.01877301138088 4.049696724067251 0 0 0
1180 1 30.271799921023817 8.137141601517772 0.11467027964848597 0 0 1
195 1 2.733555233746093 11.04262580756136 2.7940963176052582 0 0 0
22 1 1.383169715479635 9.669777291178383 4.134220288071738 0 0 0
24 1 4.174716362749384 9.64205812312075 1.396534745272084 0 0 0
203 1 8.250486325025728 10.951227689763002 2.8016420447069175 0 0 0
205 1 6.777293999002428 12.303980815597761 1.3592050487785496 0 0 0
32 1 9.657299934488833 9.603017800965372 1.397493346839983 0 0 0
773 1 12.269963164151768 12.196238219266643 1.348526903935767 0 0 0
600 1 15.092834078294564 9.566912662183045 1.2588660938091887 0 0 0
771 1 13.733887578513343 10.918296266774842 2.672167925347412 0 0 0
779 1 19.193495864076425 10.984374530739794 2.6467369607262374 0 0 0
783 1 20.631918937111145 12.181182363117939 4.045749842474025 0 0 0
606 1 17.94967017686855 9.452513342527547 4.003063319918276 0 0 0
781 1 17.784923384860686 12.379015338420775 1.3435209917500297 0 0 0
608 1 20.656290905143575 9.673067021157834 1.3533543405108452 0 0 0
1170 1 22.090073135274245 8.286561181371875 2.877826095236189 0 0 0
1349 1 23.385962496179555 12.358257281265551 1.370116896676938 0 0 0
1345 1 21.936531353080376 11.137942310489562 0.07023304664394203 0 0 0
1347 1 24.804685275444466 11.014989011767899 2.7834896508463443 0 0 0
1176 1 26.077574602177428 9.602744643235743 1.2793744679159686 0 0 0
1353 1 27.575250548885222 10.854512084241888 0.03567892702913156 0 0 0
1184 1 31.685629725234314 9.580114533551084 1.5144566039759992 0 0 0
1355 1 30.220018748307126 10.940618063998173 2.79099088754525 0 0 0
193 1 32.96517849201303 11.02829847910677 0.10729400076473183 -1 0 0
1357 1 28.965051197133242 12.368595275615858 1.3319897730731014 0 0 0
1359 1 31.600108829839908 12.274957274633532 3.996998031086385 0 0 0
197 1 1.3527690148030245 12.428026424064445 1.4285849828167474 0 0 0
200 1 4.051189913445455 15.160070554237713 1.3513786767534088 0 0 0
211 1 2.6936307810270503 16.468374704842297 2.777829864173511 0 0 0
198 1 1.22654038724419 15.155031152744215 4.1132979975790525 0 0 0
202 1 5.587788038448676 13.814891146679887 2.681985426770071 0 0 0
219 1 8.34566044411729 16.513874722087575 2.78278377818451 0 0 0
208 1 9.586879751025648 15.083988208565422 1.464819641552561 0 0 0
770 1 11.09463364290524 13.66463280183989 2.784214492709549 0 0 0
774 1 12.30676846144647 15.198513882716192 4.129173818275927 0 0 0
204 1 8.34427368676696 13.55319659862615 0.07025964724980582 0 0 0
776 1 15.065008847691873 15.11567559180174 1.469686653753316 0 0 0
778 1 16.425595018358564 13.749004521177786 2.76706210845599 0 0 0
793 1 16.43395223182418 16.412352442608665 0.03957339411202869 0 0 0
772 1 13.840266413061407 13.65168758718506 0.1125734527287943 0 0 1
795 1 19.22113642096209 16.442107988007766 2.7268610609549437 0 0 0
782 1 17.912040136457602 15.082460894755508 4.137516835202977 0 0 0
784 1 20.677789875231568 15.063382562618767 1.2881933687382536 0 0 0
1346 1 22.01136844201571 13.69171988401387 2.7651145408472337 0 0 0
1363 1 24.749485237364905 16.424977106173166 2.801823464190429 0 0 0
1352 1 26.059909621222715 15.151998951220957 1.2896349024761884 0 0 0
1354 1 27.470012852928768 13.78486157325186 2.6324218188497586 0 0 0
1351 1 26.15835131257274 12.40606444904303 4.137350747813793 0 0 0
194 1 32.94242311484416 13.795292341353061 2.7773622003468534 -1 0 0
1360 1 31.40649690426501 15.113321843709501 1.3035493691516749 0 0 0
213 1 1.3524401330657103 17.85340591065229 1.35860443818258 0 0 0
214 1 1.5240707063671333 20.6136664594337 4.12099863210435 0 0 0
212 1 2.855624060875924 19.214024062910166 0.06374932522786736 0 0 1
216 1 4.170800881484469 20.618881722062483 1.3807222043579626 0 0 0
215 1 4.155135744375409 17.78537203203958 4.0782426819458095 0 0 0
218 1 5.56543458114135 19.2345111453916 2.7509394208082787 0 0 0
221 1 6.893352770670454 17.81714047665721 1.3611703692753248 0 0 0
786 1 10.971252450341781 19.301052779398145 2.8192908451599217 0 0 0
224 1 9.586755889223342 20.60326333305377 1.3064759723344057 0 0 0
789 1 12.307926812716191 17.933948141108264 1.429734601643599 0 0 0
785 1 10.987332823894583 16.525970727911385 0.09915970119583316 0 0 1
787 1 13.771164596506253 16.627465437092233 2.7197433800158355 0 0 0
794 1 16.4943759854252 19.42643015074948 2.711354800763697 0 0 0
797 1 17.699737026066877 17.8534594057268 1.4434368333604282 0 0 0
800 1 20.53817683515483 20.565244957647344 1.2541903612532834 0 0 0
1362 1 21.909349440217422 19.1928333404066 2.742030715361941 0 0 0
1365 1 23.2762806549651 17.835221347629464 1.4407713686776908 0 0 0
1366 1 23.360580956693475 20.550665384305177 4.139389237784649 0 0 0
1370 1 27.519387949261677 19.32717858064101 2.868546005140382 0 0 0
1373 1 28.77199645904781 17.958903759679572 1.325481686761392 0 0 0
1364 1 24.84668962141962 19.123849803595245 0.1379975590315965 0 0 1
1371 1 30.214526377624672 16.607702900557573 2.7601863732892378 0 0 0
210 1 32.923533763751955 19.25659487397022 2.747336466507232 0 0 0
1375 1 31.689540551955318 17.856594597323078 4.128824637564131 0 0 0
387 1 2.775856494306232 22.044306046872123 2.6540121918038184 0 0 0
389 1 1.3609373785651946 23.376906020638867 1.3889009690113332 0 0 0
397 1 6.901158385104467 23.464990394528566 1.2937497098850097 0 0 0
395 1 8.188421556532543 22.038841256057232 2.6710790544264595 0 0 0
391 1 4.158266713029852 23.417861570878234 3.918930093763664 0 0 0
393 1 5.418537797640459 22.013448508102503 0.0592076616347665 0 0 0
399 1 9.674281516594917 23.417964570858942 4.018741179711 0 0 0
961 1 11.024767898077574 21.97063875223191 0.0766254793465393 0 0 0
965 1 12.401454176024888 23.449051680349758 1.4908276987320925 0 0 0
792 1 15.07702705781244 20.710264518664903 1.3461184336173797 0 0 0
963 1 13.735093835877883 22.037341145352187 2.856370291893265 0 0 0
971 1 19.314017149366165 22.044565457816706 2.680190994039289 0 0 0
973 1 17.792614855056257 23.371921867149094 1.4069952414376685 0 0 0
798 1 17.917098810917324 20.735480641223376 4.107126240853058 0 0 0
975 1 20.631138898434518 23.303682527305927 4.134599101623795 0 0 0
972 1 19.248130987925126 24.74740891570234 0.12822238829368615 0 0 0
1541 1 23.376282638832883 23.34298223502203 1.2809857059441037 0 0 0
1539 1 24.643688175643817 22.005736905934636 2.698489830758019 0 0 0
1537 1 21.98944271824423 21.890769412740553 0.09362470397580623 0 0 0
1368 1 26.091612865547035 20.646295289309716 1.4639848293029478 0 0 0
1546 1 27.405343692291297 24.69766934514933 2.7933278024722283 0 0 0
1543 1 26.002463471790666 23.34418840228011 4.064190811965119 0 0 0
1549 1 28.89547038549364 23.408298638891416 1.336720092618698 0 0 0
1376 1 31.602522365680695 20.664223114383354 1.3414793417962028 0 0 0
1547 1 30.203208434594437 22.1252737692476 2.738810205359719 0 0 0
1551 1 31.785478679102514 23.474905113124702 3.989378229699529 0 0 0
386 1 0.20721139547013223 24.93358410276104 2.689651263005469 0 0 0
403 1 2.7524614770522984 27.54887683496953 2.792094816021447 0 0 0
405 1 1.488186022016997 28.841461917485177 1.388618399357963 0 0 0
392 1 4.106386941748596 26.17802507742094 1.2939525486213406 0 0 0
394 1 5.583345358471621 24.8997607048888 2.641683509015704 0 0 0
398 1 7.001210373501052 26.16067045010404 4.025491181712972 0 0 0
413 1 6.835012761237491 28.891112508722593 1.3810089344734313 0 0 0
407 1 4.281989011900167 28.852932159786253 4.084880204287332 0 0 0
411 1 8.282973755002377 27.631967326453843 2.7706629601607475 0 0 0
962 1 11.013646792375122 24.82663637432522 2.7985997652477743 0 0 0
400 1 9.658461265317424 26.225688623842203 1.3105282349896799 0 0 0
970 1 16.4047540723087 24.778764852204 2.8167768531947814 0 0 0
968 1 15.075156690001041 26.07150876324919 1.421087807043135 0 0 0
979 1 13.756306202290427 27.50413121962516 2.7068983227525987 0 0 0
983 1 15.100066268658567 28.889082195605866 4.121293024878907 0 0 0
985 1 16.452730327759216 27.505174597041492 0.02655958801992142 0 0 0
987 1 19.255551721972786 27.516976199270353 2.777920530144664 0 0 0
989 1 17.86213321146272 28.787054169100795 1.4251587280145228 0 0 0
976 1 20.59819560029577 26.186484398057736 1.4403197288581142 0 0 0
974 1 17.97133799439946 26.082840458982812 4.129074192272422 0 0 0
991 1 20.584811146620755 28.875470391250605 4.0915246774819165 0 0 0
1538 1 22.13968158922792 24.845347965913913 2.730966897539671 0 0 0
1553 1 22.102736917499612 27.499365678841055 0.11066408407631201 0 0 1
1542 1 23.44250448783743 26.183776123645945 4.031042956356474 0 0 0
1555 1 24.8727285919849 27.59062633799964 2.671912449837101 0 0 0
1544 1 26.061690957311633 26.062594319291424 1.3339767642164426 0 0 0
1561 1 27.54927209024104 27.43203343858324 0.08602732195242169 0 0 0
1552 1 31.726806798790363 26.26738580234472 1.37483552625814 0 0 0
1563 1 30.34948955392026 27.60210035566525 2.7154943762424786 0 0 0
408 1 4.095677885157608 31.734489915290244 1.3461354225473412 0 0 0
402 1 0.05304583663507145 30.140527818702346 2.7256473239219834 1 0 0
406 1 1.3918176099400565 31.561975715945543 4.069576946491609 0 0 0
410 1 5.5245024099958515 30.32584733303385 2.6796769619409764 0 0 0
414 1 6.865363408676629 31.71749383011898 4.1369214490198045 0 0 0
416 1 9.585644921821777 31.491475871876503 1.3644295326561584 0 0 0
978 1 11.10835455491736 30.270221886336664 2.7710949597966574 0 0 0
577 1 10.972709358686808 32.90967291975947 0.02583500936684402 0 0 0
981 1 12.394101029449219 28.97243982369929 1.3823429149173645 0 0 0
579 1 13.771629086532968 33.01640838362596 2.822995706277608 0 -1 0
984 1 15.083675755210818 31.635422236523993 1.3580943514092807 0 0 0
986 1 16.470147344142084 30.320366141549282 2.700533218601842 0 0 0
587 1 19.286223702167845 32.86983358208616 2.783679066986131 0 0 0
990 1 17.798365315057385 31.67740407850168 4.1222053685205085 0 0 0
1557 1 23.47210329825509 28.96311287860267 1.417144913172084 0 0 0
992 1 20.650560797401962 31.5872310652931 1.3110699839207047 0 0 0
1554 1 22.022640146051533 30.236548774566216 2.759903711643161 0 0 0
1565 1 28.87054270909474 28.91546941388518 1.4276733983972112 0 0 0
1559 1 26.154330716705566 29.01987775799752 4.054903314860248 0 0 0
1560 1 26.14485293608808 31.723190897638933 1.31171465941636 0 0 0
1562 1 27.509317986709366 30.348779134786028 2.6992705490972653 0 0 0
1163 1 30.385250299934313 32.99053139076965 2.687269322397711 0 0 0
1568 1 31.657824447049048 31.547210493841213 1.4252580026310286 0 0 0
1566 1 28.90385168616709 31.790419325959032 4.1080156286288405 0 0 0
1564 1 30.210909893298304 30.33138601626121 0.06371012354835498 0 0 1
36 1 2.765266875204155 2.7386586781780706 5.507192076536205 0 0 0
37 1 1.41027561928829 1.295451697408898 6.776652943979706 0 0 0
40 1 4.107820458993692 4.049240024660165 6.907027933712514 0 0 0
34 1 0.0740843536333955 2.7035459734129184 8.227887402350449 1 0 0
14 1 6.796454116665001 4.061398462358604 4.173673626554202 0 0 0
45 1 6.91640216870566 1.272005657217578 6.914409872730165 0 0 0
44 1 8.233285924090243 2.634781966391363 5.473701395233087 0 0 0
610 1 11.108338833695806 2.749458232213499 8.243706240147402 0 0 0
48 1 9.618519017366031 4.0872087824529295 6.88970591511807 0 0 0
613 1 12.329350242892051 1.2696145487473083 6.937464206126029 0 0 0
583 1 15.15221205621933 1.4286827662043051 4.1611054601305595 0 0 0
582 1 12.431045067471716 4.146261783194896 4.250421285010401 0 0 0
612 1 13.789385403404028 2.6916414877742834 5.653959378474116 0 0 0
616 1 15.110920182791094 4.049046117986192 6.975255621901943 0 0 0
620 1 19.300633817921497 2.716478254733007 5.486134987466278 0 0 0
621 1 17.81638310715773 1.4759352998870965 6.822130103635817 0 0 0
619 1 19.232038552672158 0.13800494280152975 8.203242419118045 0 1 0
617 1 16.58830932878979 0.06289383735870047 5.543448791948875 0 1 0
1189 1 23.459784677573698 1.351416890760805 6.7620912998860385 0 0 0
1186 1 22.041796759084434 2.701070514687549 8.180164916070348 0 0 0
624 1 20.662023704453475 4.058148323514677 6.926103713724737 0 0 0
1185 1 22.018546082863182 0.043248556722559256 5.508315705540609 0 0 0
1188 1 24.806136749617746 2.8239119464704623 5.522393563342715 0 0 0
1197 1 28.86461867542395 1.4107297533902887 6.977085337003317 0 0 0
1187 1 24.809056033066962 0.085813118763582 8.259318163088302 0 0 0
1196 1 30.18135907759868 2.717937901985636 5.543882125629044 0 0 0
1200 1 31.554869651304415 4.06789337867106 6.929389104186552 0 0 0
33 1 32.947572666413315 0.06292257931149692 5.340338950719919 0 0 0
23 1 4.130168372796528 6.840290945230709 4.160053397349884 0 0 0
53 1 1.4567979055373261 6.9419027016955415 6.859339817635815 0 0 0
52 1 2.78650120913007 8.231605292641119 5.461759684148777 0 0 0
51 1 2.7861224990649065 5.499323346264628 8.250162656784402 0 0 0
57 1 5.460107065637692 5.424219575804708 5.543677763191488 0 0 0
61 1 6.826600745106505 6.86261209834999 7.04748917202667 0 0 0
60 1 8.231746609178257 8.231960788115485 5.576077217602166 0 0 0
59 1 8.226122924603935 5.451541261043443 8.244960656007528 0 0 0
625 1 11.029716503433413 5.490560938799584 5.497116956323326 0 0 0
629 1 12.332752780792498 6.846819816244882 7.068406008847878 0 0 0
599 1 15.189326802198527 6.767914227181312 4.181872185444688 0 0 0
628 1 13.74960812942824 8.168130015053881 5.576216455691162 0 0 0
633 1 16.612098885397838 5.382163291239887 5.519908991148869 0 0 0
637 1 18.067025646608613 6.831188698338825 6.822310054132542 0 0 0
634 1 16.56588956324102 8.270120788703395 8.177192265615602 0 0 0
636 1 19.401112037258102 8.180253651721118 5.341171355855505 0 0 0
635 1 19.372849239059104 5.472205730320934 8.253416509802701 0 0 0
1201 1 22.043695516394738 5.507151100640438 5.509970171913403 0 0 0
1205 1 23.430751243206608 6.834602332290903 6.764220966163347 0 0 0
1202 1 22.04065650148028 8.141893266575211 8.149317747263883 0 0 0
1203 1 24.667939078614395 5.401918900300718 8.224018536959864 0 0 0
1192 1 26.260097897515013 4.203024015409769 6.846840605052132 0 0 0
1204 1 24.811001162204125 8.240377379908136 5.3873949022677925 0 0 0
1209 1 27.59842598595841 5.59654729365524 5.548587693503557 0 0 0
1166 1 28.960396201878062 4.197190514875354 4.154028051782314 0 0 0
1213 1 28.915417617633913 6.92104422836103 7.009553034723067 0 0 0
49 1 32.95519894173561 5.6158994510903755 5.5355378114272655 -1 0 0
1212 1 30.313346598037896 8.23616499579533 5.542818539873839 0 0 0
56 1 3.989910359319653 9.664257433885759 6.936621762247115 0 0 0
30 1 6.792036960531436 9.603469469686878 4.247516326232723 0 0 0
233 1 5.437245670767911 11.006237669399564 5.490320067837643 0 0 0
237 1 6.82977034520375 12.369764381666053 6.873072756091183 0 0 0
207 1 9.649111349149976 12.324878948146079 4.157902833048161 0 0 0
64 1 9.650200887724267 9.629265002963734 6.88171935268969 0 0 0
801 1 11.043383865803793 10.897700979996998 5.537095571576594 0 0 0
598 1 12.456697882528022 9.60225180961929 4.227173695503098 0 0 0
805 1 12.402526879601169 12.364444963351074 6.862301366535638 0 0 0
775 1 15.074790105758243 12.334899711815526 4.166756643609606 0 0 0
632 1 15.098064371056951 9.614382960972463 6.856679251766191 0 0 0
803 1 13.736803140444641 11.058237727963029 8.264162874110841 0 0 0
809 1 16.565438070468048 10.874881681077026 5.388360682600872 0 0 0
813 1 17.83704797020348 12.177419225375537 6.890724452275246 0 0 0
811 1 19.374266714395187 10.94770340560402 8.161156872279523 0 0 0
1174 1 23.473891616577895 9.665186998334189 4.164695703577458 0 0 0
640 1 20.745499204457246 9.5693442004703 6.792880955558626 0 0 0
1377 1 22.088072408830453 10.953030600868285 5.395034089536406 0 0 0
1381 1 23.281425095393562 12.349655823597532 6.761939406850278 0 0 0
1379 1 24.640130148643816 10.960830328687535 8.24971462512977 0 0 0
1208 1 26.16767188366961 9.710996533178788 6.924132907689134 0 0 0
1385 1 27.574520982289194 11.020494294667285 5.435446907912551 0 0 0
1389 1 28.857274881286756 12.34295824290457 6.919260835780833 0 0 0
225 1 33.00345388091746 11.027653443112461 5.488999695312047 0 0 0
1182 1 28.896271392641644 9.603520929973707 4.180929997404196 0 0 0
1216 1 31.592378373008195 9.681951965340243 6.886586439989896 0 0 0
1387 1 30.229154351839462 11.076011356058121 8.266689575355846 0 0 0
199 1 4.104679668648246 12.446311414361096 4.177743421683948 0 0 0
229 1 1.4338637922896311 12.460002505577304 6.866909989635936 0 0 0
228 1 2.7272355856149937 13.88333418980975 5.513300581346811 0 0 0
232 1 4.129331350991356 15.21114828678785 6.8887097491149385 0 0 0
206 1 6.922554023151828 15.11845400923276 4.175440572691217 0 0 0
249 1 5.525693650246665 16.50018070860624 5.466322104499616 0 0 0
251 1 8.173932697523885 16.501210489504583 8.184275588162015 0 0 0
234 1 5.448666174447466 13.711487241613566 8.247532139451565 0 0 0
236 1 8.317886703323996 13.744863908194796 5.4562197913146 0 0 0
240 1 9.599782479765892 15.107693981736462 6.819441439431652 0 0 0
817 1 11.09472853666761 16.503853788598107 5.6064389617281645 0 0 0
802 1 10.894377794335313 13.805223303014474 8.22785143343848 0 0 0
804 1 13.70181241497747 13.837994654848515 5.524901934088867 0 0 0
808 1 15.298086908414827 15.081570273895876 6.891832440380096 0 0 0
819 1 13.98234420815999 16.46029158327478 8.234951531890449 0 0 0
812 1 19.252591661202633 13.62270156546782 5.4874952260335 0 0 0
825 1 16.61107324032127 16.510955470136324 5.463566279351983 0 0 0
1350 1 23.404828700945544 15.080039888626212 4.201641908436315 0 0 0
816 1 20.649773360965973 15.066418376553763 6.867665748569512 0 0 0
1393 1 21.94882728735192 16.368296984678086 5.515980395892242 0 0 0
1380 1 24.771789265198944 13.712699675471464 5.601654680603086 0 0 0
1384 1 26.219947443556393 15.109781022817797 6.8155118969569815 0 0 0
1401 1 27.556942912650708 16.45949091896688 5.556473811192949 0 0 0
1386 1 27.507097855392242 13.698578438247953 8.241124126318212 0 0 0
1395 1 24.77832310798082 16.517691606059653 8.230181615074178 0 0 0
1358 1 28.91913795398757 15.078063409665308 4.151146731446217 0 0 0
1388 1 30.328029941245855 13.608983704174735 5.502570372198803 0 0 0
1392 1 31.603658670506142 15.133912734368765 6.791055380884919 0 0 0
226 1 32.934244313433055 13.779956271604975 8.206331540562417 0 0 0
241 1 0.0510927346837633 16.630702572677322 5.570440327671163 0 0 0
244 1 2.9018654109736004 19.25613544733949 5.544477706638029 0 0 0
245 1 1.4211000029820875 17.999451223939058 6.901317103542867 0 0 0
253 1 6.730882267404454 17.857575902034817 6.829362917594331 0 0 0
252 1 8.151540748402653 19.241527250054485 5.625833400045258 0 0 0
250 1 5.527426781106112 19.316085143883086 8.19460042972937 0 0 0
223 1 9.6400981907493 17.913935157226526 4.205872590617109 0 0 0
256 1 9.612301131676526 20.549627275083296 6.82909075457069 0 0 0
791 1 15.2163675040993 17.97207834831729 4.157154712432117 0 0 0
821 1 12.500017965573564 17.87504897995344 7.015129947644877 0 0 0
820 1 13.705717600856941 19.18942410264214 5.529286769617004 0 0 0
824 1 15.15509436020599 20.42154501331054 6.898591274850742 0 0 0
790 1 12.524873973750227 20.575226289639758 4.196852818361552 0 0 0
799 1 20.58843485153796 17.739622789349966 4.215278644535677 0 0 0
828 1 19.28240094639499 19.3284473595798 5.473426765119159 0 0 0
829 1 17.94390607646985 17.984526262162166 6.878457411232624 0 0 0
1397 1 23.306270820532664 17.827921620926617 7.004156404246034 0 0 0
1396 1 24.692487574755063 19.123991071834936 5.477745477519803 0 0 0
1367 1 26.09863455760462 17.76366404732956 4.173118412651056 0 0 0
1400 1 26.11882166306822 20.563382087147716 6.747037964167996 0 0 0
1402 1 27.472378628951898 19.199177561983518 8.169440383154784 0 0 0
242 1 32.96686840237347 19.322248420794608 8.251607939980108 -1 0 0
1405 1 29.07224363555125 17.930138609213987 6.821336014356119 0 0 0
1404 1 30.33502963261859 19.272481150423978 5.440149033993913 0 0 0
421 1 1.4591380134695748 23.375070731382564 6.82251070772642 0 0 0
417 1 0.07056491664926981 22.030847715285507 5.38464553355725 1 0 0
420 1 2.9286643369175387 24.701995828180056 5.55267520420382 0 0 0
248 1 4.1286950376620375 20.723942889190177 6.889786830779667 0 0 0
418 1 0.09870262372897542 24.73994035095209 8.252197194193796 1 0 0
222 1 6.903588526195885 20.726704929183736 4.191605619732262 0 0 0
425 1 5.440992700968031 22.01279679325915 5.416119373310389 0 0 0
429 1 6.864887795687627 23.356429464898813 6.736465450422205 0 0 0
428 1 8.214539848480005 24.727428356481333 5.457705440221637 0 0 0
427 1 8.354738587359453 22.002838730032394 8.12676056344932 0 0 0
993 1 11.092929586918173 21.90732662848306 5.357546350468207 0 0 0
997 1 12.35052791002916 23.34793289653288 6.9042252036594585 0 0 0
967 1 15.18255557979193 23.399307904576123 4.236642519524972 0 0 0
995 1 13.681120225718306 21.814751523027947 8.16245366160994 0 0 0
1002 1 16.471908886060536 24.715037313691365 8.244997007150442 0 0 0
1001 1 16.57110603762309 21.93789585633957 5.547106052759129 0 0 0
1005 1 17.893776494019548 23.378192354366607 6.870517480620184 0 0 0
1004 1 19.258045209759253 24.73111332025462 5.502257050267629 0 0 0
1003 1 19.196435030579895 22.08307920963503 8.236157689127802 0 0 0
832 1 20.66872368685935 20.80539645449059 6.917261878773202 0 0 0
1569 1 22.062776573076626 22.091501813119706 5.501568715893208 0 0 0
1573 1 23.499386015665596 23.342793141996637 6.866905453482201 0 0 0
1572 1 24.749554435283827 24.759737591126548 5.532540239589933 0 0 0
1570 1 22.12453564612179 24.670082713813265 8.208993419556263 0 0 0
1374 1 28.89287593799217 20.7387717624421 4.171699943479634 0 0 0
1577 1 27.37986949563854 22.095169692480347 5.441840869446188 0 0 0
1581 1 28.728847341655204 23.5096915014087 6.846828054669519 0 0 0
1571 1 24.80802229470886 21.914470073083365 8.173436927215263 0 0 0
1408 1 31.731849335466816 20.722037215861633 6.758452548913255 0 0 0
1579 1 30.24900997104589 22.102554554481763 8.12730418164113 0 0 0
390 1 1.6266057827344003 26.112207004413577 4.153083761956614 0 0 0
435 1 2.7949722506437187 27.360639261674915 8.270353362079854 0 0 0
433 1 0.0986430121802897 27.550193109472623 5.667505733930194 0 0 0
424 1 4.280411867639576 26.14875733045131 6.7784618438237185 0 0 0
441 1 5.666935931625182 27.547590285948832 5.465077418192866 0 0 0
426 1 5.6111485293957095 24.807517639820006 8.210407686339034 0 0 0
994 1 10.954335267818104 24.774414439190505 8.13491798738224 0 0 0
443 1 8.41284051626368 27.565279786063652 8.208847327772785 0 0 0
432 1 9.498973706614182 26.17901136262489 6.731762424652338 0 0 0
1009 1 10.99301503584525 27.556990629895353 5.459760240778114 0 0 0
1013 1 12.386446079659851 28.80377853652148 6.918782472123149 0 0 0
966 1 12.423879203809152 26.178448604244295 4.201133998701167 0 0 0
996 1 13.728451123586181 24.861413832634405 5.683613865671449 0 0 0
1000 1 15.059484849979139 26.212951297858023 6.982703595572792 0 0 0
1011 1 13.749073436622377 27.563503413554095 8.268067921513435 0 0 0
1017 1 16.482264527786548 27.494997716862443 5.491485359763739 0 0 0
1008 1 20.612351293611642 26.10930991296707 6.885065546704302 0 0 0
1019 1 19.16460626020197 27.476319036077292 8.238217952789013 0 0 0
1585 1 22.074922934378684 27.443124440093285 5.479434134132924 0 0 0
1587 1 24.73677060398322 27.58105068626443 8.253678235509678 0 0 0
1576 1 26.05979903304399 26.20288481808989 6.730871183965686 0 0 0
1593 1 27.5278755918655 27.517924842020154 5.441280318821244 0 0 0
1578 1 27.30538661407565 24.89432176986097 8.256169237436808 0 0 0
1580 1 30.33929819530319 24.786620625212272 5.553353791687631 0 0 0
1550 1 28.90364420535287 26.094118082610606 4.1480873915533545 0 0 0
1567 1 31.642177569717962 28.885238831404923 4.262114078156009 0 0 0
1584 1 31.700930908895746 26.126267358645716 6.9203891549845356 0 0 0
1597 1 29.029792516714927 28.85856939099694 6.830888933113609 0 0 0
437 1 1.5201883668609653 28.918804408423753 7.002129955220754 0 0 0
436 1 2.8316436082198075 30.251959060265182 5.565963530383751 0 0 0
35 1 2.8165505128718675 32.86374282783745 8.260400227265945 0 -1 0
445 1 6.988246710695486 28.941835952212944 6.8993719433470595 0 0 0
440 1 4.192648258456154 31.607732532537746 6.998196681469448 0 0 0
41 1 5.403783112481786 32.98402276004832 5.531671053234961 0 0 0
444 1 8.270667849520612 30.272967805139256 5.478877198526398 0 0 0
415 1 9.677921576423639 28.981690220301303 4.168247923114819 0 0 0
982 1 12.369376602413368 31.66769227976273 4.2652937085059985 0 0 0
609 1 10.888141052839003 32.92082952763233 5.551195691714822 0 -1 0
448 1 9.57019729311844 31.489347216447594 6.975992964555296 0 0 0
1010 1 10.979951199678212 30.1539466015593 8.2675070848125 0 0 0
1012 1 13.914726309146864 30.26283148891285 5.637575656840387 0 0 0
1016 1 15.238308893588314 31.69443985750945 6.883601003997323 0 0 0
1021 1 17.908691916799523 28.910249071616885 6.86258369329549 0 0 0
1020 1 19.097901303679617 30.286627053185423 5.472105562351206 0 0 0
1024 1 20.587902720472883 31.709738855682353 6.820819739757786 0 0 0
1558 1 23.36001692051503 31.699926128059435 4.218495192495395 0 0 0
1589 1 23.348107887489885 28.959264594675787 6.937740894627809 0 0 0
1586 1 21.878861730491163 30.292557936906228 8.251955933954212 0 0 0
1193 1 27.54077358591861 32.934509778780814 5.611053847995133 0 0 0
1588 1 24.828567756593458 30.147316132415984 5.534843410813778 0 0 0
1592 1 26.062437878773533 31.50771651453237 6.876143251875221 0 0 0
1594 1 27.555599958119313 30.161530550373207 8.230475873255209 0 0 0
1596 1 30.205995734716183 30.334085345396144 5.442599690025925 0 0 0
1600 1 31.628402133985176 31.572950636686144 6.805370255306658 0 0 0
68 1 2.6909899857868607 2.648054117730127 11.034641040456274 0 0 0
39 1 4.126250564133558 1.2792100570686813 9.641434821044816 0 0 0
38 1 1.262407530647691 4.082851155568412 9.732634723096988 0 0 0
42 1 5.482691617441277 2.683306821076873 8.3157058345028 0 0 0
77 1 6.8693602927792075 1.3170428343083282 12.351194724054395 0 0 0
46 1 6.942070154835173 4.089407210603865 9.600963984450571 0 0 0
76 1 8.199137128197927 2.640760044190746 10.882624677976906 0 0 0
72 1 4.207363820711403 4.099009695263444 12.35194710962133 0 0 0
47 1 9.73807450545511 1.421079791087547 9.636745497011821 0 0 0
80 1 9.551266625543672 4.105053047669225 12.38570028566292 0 0 0
618 1 16.37218034451547 2.7116648958599816 8.476995580605715 0 0 0