LAMMPS data file via write_data, version 2 Aug 2023, timestep = 100000, units = metal

1728 atoms
1 atom types

-2.4976957552911294 34.349036222777826 xlo xhi
-2.4976957552911294 34.349036222777826 ylo yhi
-2.4976957552911294 34.349036222777826 zlo zhi

Masses

1 28

Atoms # atomic

3 1 -1.3066995993383839 -1.9228406646336995 -2.220554368762734 0 0 0
16 1 4.89539335456674 0.2991682106489799 -2.166505779927962 0 0 0
1720 1 4.551071498777601 0.9377589710021281 0.03121002231120862 1 1 1
307 1 6.574789352572646 -0.4993953846339043 -0.34238241261366875 0 1 1
292 1 5.941513372656365 -2.0450526882216358 -1.922771712168748 0 0 1
438 1 6.09124209867279 0.9873907211216149 1.5833238505098572 0 1 0
1110 1 11.156969792158964 -1.5275646828375269 1.050074719825823 0 1 1
1286 1 13.099697180165537 1.4743677832175193 0.45706290042940045 0 0 1
647 1 10.875202550829616 0.8332504631669879 1.0400896053151123 0 0 0
590 1 12.444054150824996 -0.463876967945581 -0.47953784465087024 0 0 0
630 1 13.945146726311151 1.1028542472030423 -1.6471391793749806 0 0 0
686 1 16.164311754342044 0.24865460561489483 -1.333282949140789 0 0 1
411 1 17.68945697673787 -1.548969661009617 -0.38421344340908714 -1 1 0
1339 1 17.435201376894348 0.9296736005920843 0.3873851055534949 0 0 1
1332 1 14.060353714970997 -1.5566495929155018 -2.0580817339358544 0 0 1
1364 1 21.922355466008337 0.49046857154228674 -2.1122496645820044 0 1 0
173 1 29.70561536490651 1.060749055386351 -0.4626115981980776 -1 0 1
416 1 28.83613125323599 -0.12906093057991486 1.2652131231125558 -1 1 0
299 1 29.481715265709035 -1.328127971238115 -0.8058847916915677 -1 1 1
968 1 31.054449669310795 -0.47393380752266756 0.590481680930262 0 1 0
1482 1 33.00778131490647 -2.348323137422378 0.9680335491976257 0 0 1
1492 1 31.626349630924064 -2.2912663860755047 -1.0378108919468623 0 1 1
546 1 -0.4578536555719541 5.448257786502238 1.3483091422384188 0 1 1
1365 1 -1.77089289681359 5.460748196576658 -0.6536671394305036 1 0 0
55 1 5.440006416321873 2.461116949094695 -1.569944178622233 0 0 0
115 1 6.646782763847106 3.5648429515493625 0.23512087305928642 0 0 0
1280 1 6.140420670075336 4.725400426882289 -1.9998454268235009 1 0 0
822 1 8.34676967220426 4.73965259130437 -1.6222652204634012 0 1 0
1138 1 15.27928348740014 2.131409176299079 -0.22505390006459214 0 1 1
664 1 16.82262699473964 5.376190900594028 1.225554149001638 0 0 1
659 1 19.5350761197816 2.1669827371283326 0.699435671081309 0 0 0
1343 1 20.775250235703815 2.5488931552650023 -1.2024140302874835 0 0 1
1396 1 21.937372332049193 3.1293820990329833 0.7874092491858451 0 0 0
774 1 23.015295452843247 1.9411203902320624 -0.926359436630579 0 0 0
1491 1 24.30245110428407 3.4259124104265073 -2.2395544682421273 0 0 1
1399 1 28.29607402631178 2.19857083939496 0.7587878314629473 0 0 0
1010 1 27.562098981990882 1.8904921052225392 -1.419673621827952 0 1 0
858 1 33.4893567992371 4.848722216818149 -2.2882969610205204 0 0 1
266 1 32.01486948636668 5.563294378068797 -0.22131587391284002 -1 0 0
1463 1 -0.9331878075782865 7.441455872030351 0.17073110332448538 1 0 0
207 1 0.8716760349883823 9.267543158528033 1.4072937630337559 0 0 0
135 1 -1.015413402345322 6.9646203083893585 -2.05045193095928 0 0 1
938 1 3.1233638943523507 9.53548242819371 0.5217907037600313 0 0 1
1209 1 6.910125269572562 6.163183470211996 -0.400501924361627 1 0 0
638 1 6.593611273329019 8.373483928776583 0.21363318016745358 0 0 0
691 1 9.445069969843184 6.620825783557844 -0.41229740402724424 0 0 0
1553 1 8.72757112404321 8.27768113185712 0.9682884725470715 1 1 0
1478 1 10.662790969952011 8.697829137150515 -0.20134198078826593 1 0 1
240 1 10.899732640836165 9.651583060771246 -2.2061375383374604 0 0 0
60 1 16.956841538827675 8.639994475398668 -2.452073255593362 0 0 0
839 1 14.241749843536613 8.614156719529115 -1.0063959189264522 0 0 0
596 1 16.896151057171743 9.728781338812404 -0.46155809001877257 0 0 0
255 1 16.801206547119953 7.649592467115273 0.4093089957480194 0 0 0
1113 1 18.806123154476595 8.879050439897108 0.836913047074908 0 0 1
1484 1 19.018882347542206 9.50850433171477 -1.6240991402758818 0 0 1
1374 1 20.67179575252912 8.229554215560984 -0.4251287486623627 0 0 0
927 1 26.132782735574768 7.84418508364049 -0.7883834591572187 0 0 1
876 1 24.61429817146022 9.71503101568355 -0.9927068942687656 0 0 0
1310 1 22.622477845000315 9.285243861133688 0.17137959892294363 0 0 1
1223 1 30.09696636465905 8.220322641309375 1.505941948353061 0 0 0
824 1 30.010402320039557 8.636129397707338 -2.042932008200576 0 0 0
847 1 29.66101554392954 6.686248631762302 -0.6214555017616492 -1 1 0
1503 1 28.25423744496969 8.651562736530202 -0.10790062933111155 0 0 1
954 1 31.205257202757647 6.181548396730042 -2.4949719276239626 0 0 1
1321 1 32.36103928779528 7.037878480144428 1.441098258955221 0 0 0
524 1 -0.11246694930923251 12.905113111286578 -1.9189158233526467 0 0 1
142 1 2.5321427135944896 12.866863751170436 -1.9260363367431326 0 0 1
230 1 3.346542216449264 11.83656089742575 -0.041167455261470476 0 0 0
1355 1 5.67649879406496 11.529515490332003 1.5691319680221634 1 0 0
517 1 2.7126807319406803 10.41559991842424 -2.111674061459229 0 0 1
32 1 8.860780152793287 11.31879439815519 -2.0866920787873275 0 0 0
584 1 7.7929538973578705 12.991975582343386 -1.182863254973676 0 0 0
122 1 12.710256070464661 9.829895922467827 0.4998860436992443 0 0 0
1302 1 12.991100437492872 10.696557600941734 -1.7219549731476236 0 0 1
156 1 9.904230599807947 13.255349067395622 -0.812805675875967 0 0 1
1231 1 14.720698479257923 10.600467014448613 -0.05496071172860573 1 0 0
636 1 15.299975160374768 10.322918313617201 -2.2828813434888775 0 0 0
667 1 21.249865868177896 10.343466305444096 -1.5074482406013239 0 0 0
1357 1 29.9788642383249 10.327557555159151 -0.35301211982581027 0 0 0
1689 1 27.935302401928126 11.05438627940917 0.29079639642298405 0 0 1
1170 1 29.66832942609174 12.225242113557787 0.9702719516901359 0 0 0
1489 1 27.894691867825845 13.54132756890781 0.6962788049095692 0 0 1
263 1 -0.0845609284479858 16.75830746762741 0.28643418179366487 0 0 0
1398 1 -1.6439137082187414 16.912076855654448 -1.774876343186837 1 0 0
235 1 0.7247396631411762 17.070392213752573 -1.8773230307593725 0 0 0
329 1 -2.220148142394361 17.749159810257705 0.47926602887925673 0 0 1
1675 1 3.364089460128586 16.71182983134553 -2.3960144969322954 1 0 1
1210 1 3.127572640919399 17.605955127241756 -0.10820841153492466 1 0 0
374 1 5.3633943497376775 17.938171409767783 -1.717629522735315 0 0 1
595 1 1.8469745822757266 15.970768019144991 -0.22068842958841284 0 -1 0
663 1 7.6331319740973615 17.67371758394299 -0.9888583530647643 0 -1 0
47 1 8.271363735520412 14.3866209509088 0.7322303945675683 0 0 0
933 1 9.237836106461478 16.983176778891153 0.6838317443598414 0 0 1
1188 1 9.8707007444366 17.027529594534847 -1.6938686369807496 1 0 0
247 1 10.728299844540716 15.340767635530863 -0.3744465801518637 0 0 0
1350 1 11.669778052983228 17.002603977984922 0.9407717666779565 0 0 0
354 1 20.173197701891993 15.92733804509961 0.4825659730611722 -1 0 1
1114 1 21.849456444946558 15.191440804153263 -1.3339276474160524 0 0 1
1107 1 19.73811652922827 16.491365471113628 -1.7631082033759395 0 0 1
218 1 22.39987238230759 16.3670770395649 0.3878969481709964 0 0 0
1324 1 24.193437595804884 15.442352332074531 -0.7304989244560203 0 0 1
788 1 24.804426053241063 16.15599809648916 1.5176022583902142 0 0 0
321 1 27.5952119364804 17.047798574357643 -1.413654272835503 -1 0 1
786 1 30.324888435134884 17.333948632870598 1.4195130059163468 -1 0 0
1236 1 32.78773646319824 17.48528532232196 -1.5238555278281538 0 0 1
1431 1 -1.2699370256053037 21.5792031596196 -0.12917005036310103 1 0 0
293 1 3.257851122898094 19.425941213786118 -1.6783681111167028 0 0 1
1383 1 6.936573842781575 19.87641921613381 -1.4660066923861812 1 0 0
1481 1 9.124285281508604 19.514807021735827 -1.2717568626208378 1 0 1
827 1 9.179627306783257 21.23731509873034 0.18989263670795875 0 0 0
782 1 10.584088691944487 19.139029945190895 0.4281250110849446 0 0 0
328 1 15.366790650222725 21.912548578006756 0.9248455295309439 0 0 1
995 1 14.90903778986512 19.861180239044884 1.5564592262671955 0 0 0
1143 1 18.977519699368774 19.534347340465935 -1.4227823938427855 0 0 1
817 1 21.072154728301857 20.492164813701052 -0.0021944022339774882 0 0 0
1366 1 18.933264138019606 21.386474576218028 0.17346437229330425 0 0 0
830 1 20.477472895021595 18.4395415515287 1.0118975413828761 0 0 0
1696 1 18.224611824024958 19.12077727987367 0.8858961328124946 0 0 1
1137 1 21.739672068686573 21.044959229005855 -2.3036027942566886 0 1 1
1259 1 28.296364346966975 18.073058440637094 0.6853708897659008 0 0 0
1496 1 29.848056109866423 18.06930130052443 -0.9022356800118512 0 0 1
169 1 31.98609067292278 18.57338766733435 0.2727932818289127 -1 0 1
1407 1 34.00841518327394 20.18248559396101 0.6159962261888494 0 0 0
1592 1 0.36136910932287325 23.38561544816944 -0.5438597834881314 1 0 0
442 1 0.48495721386791324 24.681804716238666 1.3168503544975003 0 0 0
1474 1 -1.5559365181496383 23.726376703820744 0.7849653902985891 1 0 1
1578 1 2.718822589077525 24.768168518708077 -0.05754258289119196 1 0 0
1559 1 2.222000935050909 23.727917837203467 -1.959119307496612 1 0 0
1144 1 4.3621691957164135 24.390687928069855 -1.3630542900463505 0 0 1
97 1 11.477110904993022 22.734943697349536 1.3754554817588263 0 0 0
162 1 10.361078862383671 25.198002744403137 -1.77134926033317 0 0 1
352 1 9.906995757483172 23.63488112356658 -0.16022171416560083 0 0 1
1132 1 11.776226738817615 24.884693426647754 0.19152333542194944 0 0 1
1164 1 13.594604138512032 23.608391374942702 1.3388624577629487 0 -1 0
1320 1 12.592405445782681 25.83181145372688 -1.8878188739871187 1 -1 1
966 1 13.9172272781611 24.319944028921764 -0.8561496888201283 0 0 0
990 1 15.971251157738951 24.17891367342064 1.0208835274068706 0 0 0
39 1 17.941385624852405 25.339708760293778 -0.38424875321607166 0 0 0
987 1 15.863460568485088 25.585541297338846 -0.9233147022138515 0 0 0
911 1 17.489136888324524 23.14800225706226 -0.4549690150115815 0 0 1
1135 1 25.38444175588647 25.44455924354819 -0.17515651371636176 0 0 1
1035 1 23.45135224478652 24.254643406001858 -0.5082412186659755 0 0 1
344 1 23.529455109551446 22.881178077026597 -2.4390051802685093 0 0 1
86 1 25.306365963455573 23.835776491428923 -1.6531814300246501 -1 0 1
1709 1 28.71128629531248 25.434786749067744 1.1472312079841291 0 0 1
463 1 27.40933347957208 25.09208517119377 -1.4355790786352514 -1 0 0
1421 1 26.956610214920385 23.90650688692818 0.43289694415728697 0 0 1
1555 1 1.5331797013780495 28.453764046448256 -1.3885511366237275 0 0 0
401 1 -1.5779314255776913 29.70655628533053 1.245087756569307 0 0 0
1104 1 0.29293983890905073 28.394898690281796 1.1011584381867041 1 0 1
1557 1 3.2469575119874614 26.730129496882178 -1.4490110691741147 0 0 0
919 1 3.6107927116984513 29.037108052573398 -2.2167750405096047 0 0 1
417 1 1.9724187791847543 30.126099575462252 0.7378651034757162 0 0 0
343 1 17.89103340457394 26.80130121959687 -2.2550339524032412 0 0 1
1172 1 17.142636168634642 27.69827451239963 -0.2676802782147969 0 -1 0
482 1 18.96159918023158 28.88093291573494 0.8997516200363078 -1 0 1
908 1 19.60724308025394 27.832196701613704 -1.1824043734229905 0 0 1
1093 1 21.674139297584123 27.9457581981353 0.16382616116171933 0 0 1
1149 1 23.42262015360759 26.4701981657787 0.8580349475692222 0 0 1
1387 1 23.74858525559046 26.28322064299047 -1.7385458422281217 0 0 1
1323 1 25.44633103441881 27.510373146511014 1.3942545872980983 0 -1 1
716 1 23.229091960208255 28.924701185213866 1.5926921451807283 -1 -1 1
579 1 28.666493767687538 26.712646442150568 -0.8217840203575506 -1 -1 0
146 1 30.066797033487514 28.406643741946286 -1.2456268825260175 -1 -1 1
1447 1 28.671051380428764 30.106056181598635 -0.16844334125424654 0 0 0
414 1 28.64422541415664 27.99653649031354 0.8512150641032314 -1 0 0
1693 1 30.691528964230752 29.307262371850655 0.5508088785174712 0 0 1
1577 1 -1.535029218822344 34.23356171624373 0.2353357163556895 1 -1 0
25 1 -0.46410629975575235 32.77337772008116 -1.3187488919847423 0 -1 0
1476 1 -1.352582987968262 31.960144482166807 0.5758875136490347 1 -1 1
629 1 0.2992619808212842 30.553187671119087 -0.7373811680121611 0 -1 0
511 1 4.165019154147416 31.365033951642385 -1.9240263104985087 0 0 1
576 1 4.116079423331106 33.457996608444276 -2.477728045202965 0 0 1
751 1 6.12975362285616 31.354205728487553 0.9368644553070626 0 -1 1
441 1 6.180360105158163 32.43094028193637 -1.442158868300252 0 0 0
1052 1 5.781997619018146 34.21748303484286 0.32756264162251636 0 0 0
1304 1 13.16480032382451 34.28391895444065 0.01843730886905437 0 -1 1
184 1 13.411598874521486 31.762646363012852 -0.12862385237448448 0 -1 1
163 1 13.20594397631999 33.10037502695285 -2.1340664795226925 -1 -1 1
816 1 17.633948464001637 30.9791601910544 0.9101342662668843 0 0 0
1145 1 14.447288308088261 33.03090288558046 1.5191096103856596 0 0 1
894 1 19.602432925100036 33.95043886508023 -1.343802174526576 0 -1 0
767 1 21.828017516466183 34.31398313765813 -1.0182820819784129 0 -1 1
998 1 20.95365620836829 32.107578903811074 -1.1391048311337135 0 0 0
787 1 18.657226846434167 33.113394180072135 0.7495558911651719 0 -1 0
1187 1 22.544101035253508 32.7046662444758 0.7383526565577156 0 -1 0
1569 1 31.82609091483565 30.459808712380752 -0.8553589371714176 0 0 0
149 1 34.248592173131755 30.442801600653215 -0.7097193279434175 -1 -1 1
1558 1 31.27061461470036 32.46150554167285 -2.26473119313881 0 0 0
1683 1 -0.17989323208872454 0.17683028671031353 4.06026900423753 1 1 1
1196 1 -2.223309046041887 1.566392140207597 3.668470766588719 1 0 0
499 1 0.47800041248109837 -2.2493796902289778 4.119064896825045 0 1 0
225 1 3.8827247158064706 1.1356787411386322 2.252548364683001 0 0 0
1255 1 12.21204035255118 1.0518021703078708 3.0208411342956296 1 0 0
1020 1 10.286371027328052 -0.4704168201089791 4.2666096717305715 0 1 0
1029 1 10.655762704420837 -2.421467673485593 3.0917486266026035 0 1 1
1031 1 11.541589004002116 -2.041280169875212 5.465563695079431 0 1 0
641 1 18.71499984645158 -0.3970961829118811 4.321415980788817 0 0 0
1285 1 20.895592482340014 -0.016230511434037087 4.126086811226627 0 0 1
65 1 22.09203163546671 -2.2876325522869387 3.8143887609054836 -1 0 0
1361 1 27.821902259394236 -0.7329833452260801 3.497279830981431 0 0 0
35 1 26.956081909015342 1.2844513586634467 2.443031875068563 -1 0 0
1243 1 30.176519201290564 -0.46792156612494296 4.079830710429023 0 0 0
269 1 29.24723772352092 -2.3840187245336795 2.951861888684566 -1 0 0
419 1 28.4179355943484 -2.1231899847112654 5.185217936752594 -1 1 0
1352 1 31.638544173665597 -2.0657069295082335 2.658265459097474 0 0 0
422 1 32.16332673834438 -1.9414890794482398 5.10501334996518 -1 1 0
1133 1 -2.0221531484075594 3.434649745123811 2.027966848614591 0 1 1
607 1 1.0050464936221677 3.9605548244943396 3.2211823851458465 0 0 0
666 1 -0.32508195196142475 1.9984125718950372 2.653315543119513 1 0 0
611 1 1.8115951592906407 1.84908577574158 3.6096912086679094 0 0 0
1370 1 3.561204272804976 3.479294129753824 2.7887920249822074 0 0 0
129 1 5.399053975414881 2.0009769828605917 3.7770857172815564 0 0 1
1392 1 2.771394202369727 3.540114181556233 4.9461840878286285 1 0 0
594 1 7.52585005224733 2.5345985081247813 2.578834482348781 1 0 0
1580 1 5.72940230572685 4.156058611298969 2.7747501519150983 1 1 0
789 1 10.0086738792242 2.129525111322269 2.6997934790907188 0 0 0
635 1 11.97651169001484 2.907205613682885 1.9080394372943896 0 0 0
189 1 14.418302353920897 3.3727342343123743 1.9596212919668137 0 0 1
669 1 17.224277161336424 1.6128525125849018 3.786690146653905 0 0 0
1547 1 17.020759260349344 3.7159568996302434 2.6098190449301626 0 1 0
170 1 15.735470519719158 1.6106465232770226 2.065823632855462 0 0 1
1260 1 18.725661410644594 4.483910838772275 4.55767584595013 0 0 0
1211 1 21.12838741074258 3.825853289070964 2.6249753678548187 0 0 0
887 1 19.537391001509985 1.9058493719388645 4.448191765525332 0 0 0
88 1 20.86067825551873 1.6411203444235216 2.619379048751737 0 0 0
333 1 25.20595862656044 2.5381964127557133 3.5051419066448872 -1 0 1
872 1 23.452930158285696 3.993493574638265 3.333408983220365 0 0 0
1056 1 25.000354289692723 4.124736568506872 5.1764058375907265 0 1 0
444 1 27.41904738003027 3.439223829730169 3.9961711013859853 -1 1 0
1378 1 26.64537155942117 3.50358563789442 1.9479231034681463 0 1 0
644 1 28.494004445949237 5.34774423303353 4.728753137341458 0 0 0
63 1 32.98100609296817 4.584146571344849 1.6062791472443694 -1 0 1
1005 1 33.28480863568265 3.854226005731568 3.810003379326046 -1 1 0
466 1 31.421214004057102 5.334080387379538 5.204446407991616 -1 1 0
275 1 -2.4356434342432185 5.827471514606298 2.887948500341871 0 0 1
618 1 0.6775699918128222 8.34440022540893 4.0066159379479265 0 0 0
418 1 0.038312175159398 6.1301829798436085 3.3980097426222233 0 1 0
1189 1 5.131587196759964 9.338455488190654 1.7777072803980465 1 0 0
1161 1 2.6150137309451527 9.236488732673886 2.9409731893440236 1 0 0
434 1 2.7517211757882505 7.65316122644982 4.962100838512801 0 0 0
59 1 4.712627463953907 8.157990150260227 3.568579758184634 0 0 0
721 1 9.425325420854282 8.769665172437488 3.185138309725973 0 0 1
2 1 7.139548329352541 8.419364243773817 2.6146815420763945 0 0 0
397 1 12.854566457113515 5.988961424511341 4.898741481383136 0 0 0
633 1 10.61843088539947 6.7933513605729665 3.747140376054679 0 0 0
537 1 11.520019949188601 8.323108460284562 1.9140463269298325 0 1 1
1426 1 13.215157439230385 6.633705285114223 3.01728333448016 0 0 0
355 1 17.15239025115251 5.856989761161147 3.4447345574894213 -1 0 1
1199 1 15.453548080229329 6.865116727677647 2.3435014106810215 0 0 0
1257 1 15.101353726260367 6.019577019048683 4.576179370033801 0 0 0
743 1 19.602311049889703 6.046284680922435 3.27131159080011 0 0 1
1460 1 20.90619563277488 7.728357235421848 1.9523228888870978 0 0 0
1175 1 21.359280793234312 9.255442038111779 3.7392743541421476 0 0 0
583 1 21.43428466935865 7.049352084246468 4.686484819246658 0 0 0
217 1 23.39130973733562 5.787299487558677 4.816571828359576 -1 0 0
1524 1 24.753047681173275 7.869195286779249 3.7541531842923943 0 0 1
151 1 23.068361484560505 8.541287115267037 2.3239780605578977 -1 0 1
1515 1 26.35585125497093 5.874231707079421 4.084160667554068 0 0 1
58 1 30.105347436938462 6.9211018888707905 3.6110926996207455 -1 0 0
1096 1 31.773129050385858 8.749525108940874 3.137742893388772 0 0 1
105 1 32.77595208403271 9.101507472656502 5.196488029928451 -1 0 0
1385 1 0.8420288452116478 10.818288730566353 3.1864484096365047 1 0 0
41 1 -1.1818025183498304 11.965592970122861 4.195090991989876 0 0 0
574 1 0.3226624935446254 10.46313601048698 5.453023528397446 0 1 0
61 1 3.462543747916458 11.180975322052536 2.09282211820421 0 0 0
296 1 5.967666857540875 10.375295910256115 3.7692214230739385 0 0 0
1017 1 6.707826884823707 12.707841785903932 3.265810318429496 0 0 0
50 1 8.271631341574748 11.113841284752587 3.8995963005877634 0 0 0
475 1 8.00154006229264 13.253988631495384 5.135511902551976 0 0 0
1160 1 9.958644057701267 12.164086970075733 5.113209882949542 1 0 0
1560 1 21.975758402058364 10.553546000652306 2.1363129776248853 0 0 0
904 1 23.84146793239962 9.97181067219787 3.8227019128371307 0 0 1
430 1 22.26938830828443 12.210542887908199 3.615499117784708 -1 1 0
739 1 25.46368465874713 11.444901547919224 5.658067375347947 0 0 1
1163 1 30.03642150863109 12.64858234813335 3.5688253612951026 0 0 0
750 1 27.952104225616498 12.04972334068873 2.584207059989195 0 0 1
1169 1 31.068580862973764 10.475926113464906 4.52167082571977 0 0 0
1430 1 34.28684648127549 13.638041958501912 5.342609023164872 0 0 1
104 1 33.57822429469206 11.41184749744621 5.086128325196546 -1 0 0
62 1 0.04016438296059155 17.760680885929403 4.148959175755929 0 0 0
1353 1 2.4998311166748994 17.507429209747173 3.827158304251931 1 0 0
1207 1 4.720455268615894 17.00419677553614 3.506789881911766 1 0 0
873 1 8.314875993519887 14.733263233990733 3.1803746600810943 0 0 0
832 1 6.906707928568897 16.532782787260405 3.9082809627913537 0 0 0
111 1 6.202154154363626 14.53351195613337 4.525036004571016 0 0 0
943 1 12.893603860536611 16.938799506814878 2.8571667258172697 0 0 1
449 1 13.242692490867766 15.99358556716049 4.873901372857674 0 1 0
1212 1 17.358230084802404 15.165774166669284 4.176113670313462 0 0 0
821 1 15.10584473872326 15.556205651712187 3.5807748147181453 0 0 0
1088 1 15.301340634406134 15.138873528143403 5.587634651055296 0 0 0
121 1 14.99773344379971 17.866651943744504 3.2919236275196004 0 0 0
244 1 15.817179982251837 17.30878238548892 5.210727494178508 0 0 0
773 1 19.46795696753827 15.045943843447429 2.8616226694426388 0 0 0
698 1 21.55416335326206 15.205161923877835 4.516246132261744 0 0 0
918 1 21.627126799594528 14.680519845858726 2.0045167598260827 0 0 1
871 1 19.47894433095489 15.858765343350758 5.266886666381848 0 0 0
932 1 25.65201866049864 16.28415631477555 3.6177382949627157 0 0 1
1594 1 23.40320469166883 16.669431564331454 4.606381481904709 0 0 0
833 1 29.480504077130014 14.370149952519167 5.047701284686154 0 0 1
903 1 26.829138517036522 15.051525047252603 2.0348883399479893 0 0 1
53 1 27.729186815560247 15.785196527872287 4.253529673086785 -1 -1 0
523 1 28.80012421160244 14.33737674695827 2.7988163105001878 0 0 1
996 1 31.866286959423622 14.497566571190127 5.5280294379843085 0 0 0
794 1 -0.44536330186382234 18.232647586985077 1.8932477648049373 1 0 0
1435 1 -0.7499992966190594 20.203601645105696 3.3626699033920318 1 0 0
1499 1 1.5161499207202622 19.444924768447823 3.389522002467749 1 0 1
1441 1 -1.9942475883168105 21.94835384752882 2.1089493913961412 1 0 0
1607 1 -1.6355025232978038 19.235668108169325 5.213660286849566 1 0 0
806 1 3.4934226459861764 18.574088747692457 2.0368497925764713 0 0 0
902 1 3.7074842493566216 19.435255848566502 4.315623471556951 0 0 0
825 1 5.8929598440500435 18.51860120500145 4.5478675855382535 0 0 1
974 1 12.606841548222812 19.03416990945082 1.8813362269353275 0 0 0
986 1 13.426583177722367 21.449820295910843 2.505402263681061 0 0 -1
944 1 13.61488258250774 18.31202083042006 5.049795474390382 0 0 1
689 1 16.41825707477433 21.525084593562415 5.5959456209577265 0 0 0
70 1 18.778747957985132 19.389449251332668 3.0398398710480565 0 0 0
1666 1 20.651067842158707 20.858210641070833 2.544465652439496 0 0 1
1412 1 21.042817717304345 19.313313201221018 4.725620204748217 0 0 0
1395 1 18.661089153478944 20.42973903642608 5.100684561039778 0 0 0
1424 1 20.707651370902298 21.60482154062792 4.863795096104863 1 0 0
701 1 22.65166325406058 20.819965431778396 4.096946607079722 0 -1 0
1000 1 23.282996766380293 18.93301614983603 5.204494842079932 0 0 0
396 1 24.608872423093537 19.65170225007391 3.4565102102643728 -1 0 0
1659 1 24.589152045729193 21.28331320220162 5.084062638685702 0 0 0
1622 1 26.551829996291904 20.219608757132914 4.587503733963255 0 0 1
139 1 29.21472543932461 18.99549222882058 2.91822678206435 0 -1 1
1716 1 27.03302072744339 19.42755653007276 2.3056243876248512 0 0 1
1470 1 27.293532020387836 18.11434063520031 4.192097694187691 0 0 0
1564 1 28.17169751411082 21.236604399223555 3.2147482792986146 0 0 0
1415 1 33.11443555128261 18.28771887483572 4.449750668893554 0 0 0
45 1 31.555301799045065 18.71283482306371 2.770091115902927 -1 0 0
297 1 33.66990532649028 20.188435988684226 3.0683966723788654 -1 0 0
709 1 0.22025884968083131 22.40259584018014 1.6302942971648884 1 0 1
387 1 -1.4051009518356525 25.490521242542854 2.1410752391752066 0 0 0
229 1 -0.6151581249909175 25.730599913974498 4.8072765149321155 0 0 0
256 1 9.395526234910957 22.683273941369755 2.004630775411818 0 0 0
123 1 8.078672878896075 24.233067558811104 2.8410603981534397 0 0 0
1030 1 6.472538218582853 25.6081999223 3.850505535678404 0 0 0
9 1 8.514087192818783 25.56226974277525 5.106456840601418 0 -1 0
916 1 10.036894909062068 25.034798363402786 1.9264059860478193 0 0 1
1040 1 17.699335666025664 22.932854482327045 1.730622832296861 0 0 1
426 1 26.66192776767539 22.606999195217604 4.248882711697985 -1 0 0
1111 1 28.799523866447284 23.508909422275078 4.46011043409001 0 0 0
1615 1 28.208777951964123 23.389668244679875 2.264163080957874 0 0 0
1692 1 29.73982679508548 25.029910081795332 3.078635444525366 0 0 1
389 1 27.061767288020153 24.70497177375365 5.52300466509624 -1 0 0
1601 1 29.624024444651678 25.40424277710728 5.477517045129723 0 0 0
36 1 0.5828427136424019 26.675935714466398 2.574613107892006 0 -1 0
1185 1 -1.4533015308897916 27.894053109739527 2.623013398933284 1 -1 0
807 1 8.443525866287633 26.608341642177646 2.8554331044040895 0 0 0
1116 1 5.890749768671769 29.954365122354513 2.8037942458299607 0 0 1
310 1 6.461531768534693 28.741090151540966 4.701063772255799 0 0 0
979 1 7.875094048386279 28.78635309040687 2.9207087529390376 0 0 0
1583 1 9.237521666900838 29.037613488951227 5.301818010506239 0 0 0
740 1 17.801640853350758 29.451682115975448 2.9758676527228403 0 -1 1
1356 1 16.74740852264428 28.26822174680353 4.850938773048068 0 -1 0
1344 1 21.044593230897675 29.565151524112164 2.2479885587075383 0 -1 0
1282 1 25.13016396400818 29.349143591330066 3.006570749160166 0 -1 1
1291 1 27.941045633271905 29.42420766702481 2.1963753263041177 0 -1 1
1703 1 29.98816453940275 28.55320052144458 2.693998285027976 0 0 1
1593 1 28.094048640659363 28.771524787476697 4.315765883130282 0 0 0
239 1 34.27336684261209 26.417661991786733 4.181882378978411 -1 0 0
1714 1 30.921207905729727 27.04912812091296 4.281105749477681 0 0 1
1540 1 33.242617033199494 28.403711410790184 4.810771600434928 0 0 0
1708 1 -0.8882383433988379 33.51362075091235 2.3544148883442952 1 0 1
1203 1 -2.0425736457015624 31.6192355484236 2.72837049596719 1 -1 0
994 1 2.6597329457649215 32.29137806425081 1.7965317704696302 0 0 0
1019 1 2.5684440900925845 33.67084039150237 3.7424711683972376 1 0 0
570 1 4.053544088072117 31.502150209518984 3.6057668505686173 0 0 1
1 1 2.29576773838395 30.38880642466678 4.68495233963325 0 -1 0
963 1 4.339446589600453 33.9762642185035 2.1602489077561655 0 0 0
268 1 3.497137653122321 32.42727851651075 5.5411183684292045 0 -1 0
12 1 6.347550971553334 33.14199228372149 2.3894495188806104 0 -1 0
848 1 7.922438968992056 31.28796783423702 2.5523957592164352 0 -1 0
617 1 9.614050279845058 31.227173418688498 4.246821278037517 0 -1 0
582 1 8.695331297802886 33.20263490968348 3.5526809549457683 0 -1 0
534 1 12.010729378028325 32.76713041340925 1.627419372611909 0 0 1
700 1 9.868893904722336 32.97258693387478 5.656298883411047 0 -1 0
1591 1 15.924774794053466 30.522948133799044 2.3616665326998447 0 0 0
1598 1 16.550770537724404 30.653886679512123 4.737761449826924 0 0 0
797 1 16.731822313394993 32.821522226793576 2.0358564437595463 0 0 0
770 1 15.352429911943744 32.27835397338373 3.808471251753854 0 -1 0
281 1 20.827981184506758 31.845414660501202 1.8713873416580862 0 -1 0
1007 1 22.00368057129573 30.837318317299147 4.011295814161071 0 0 0
1345 1 21.11798562588717 34.34600205235094 1.626469628048123 0 -1 0
1567 1 23.92607196862487 31.02713792353725 1.7401266301924263 0 0 0
1602 1 24.369155541200207 31.26045114024151 4.256726875414734 0 0 1
1688 1 23.8832306831144 33.142973410018755 2.966837644579085 0 0 1
1155 1 22.63678522106291 32.704427291791916 5.0559005952810265 0 -1 0
905 1 26.938764334416774 30.804752160058467 3.882260130917362 0 0 1
1554 1 28.514417638045433 32.1907829013835 5.178838288089875 0 0 0
544 1 33.71754820915018 33.65451359651104 2.9823975043686977 -1 0 1
1166 1 30.363229861735032 33.40338510920398 4.918553839349489 0 -1 0
1596 1 -1.4707093362049326 0.7132331847590527 6.165502576381851 1 1 0
907 1 -0.049242357759565536 -1.1477333521344588 6.135286616645242 0 0 1
1218 1 -1.5656962137619352 -0.12019365739235388 8.209359163452012 1 0 0
1079 1 9.60613265480172 0.9842488565980982 6.281024220220393 0 1 0
585 1 9.658274912444856 -1.457263873343928 6.592414540105894 0 0 0
90 1 13.686032309748203 -0.9346298034737188 6.5592445918681666 0 0 0
381 1 11.378279699942041 -0.2914675474153148 7.1792488270008405 0 0 1
1027 1 14.924075425030033 1.2923897226728012 6.898719151412026 0 1 0
997 1 14.563014391558845 -2.2895836598351047 8.286703709339546 0 1 0
73 1 14.701592498336495 0.08375003282275406 8.773179839327454 0 0 0
4 1 15.976772484623641 -0.7702747131846179 6.947540569298619 0 0 0
1092 1 19.973717112530323 -0.6172382564328165 6.140197709394592 0 1 1
650 1 21.838866722970838 -0.10677436953461994 7.448318136672837 0 0 0
597 1 18.065900347626965 -1.8135505526222868 6.100321869655383 0 0 0
1082 1 21.8955846143548 -2.3420019850104583 6.196311626283006 0 1 0
1063 1 23.387012643937013 -1.7361570966434465 7.837722645688206 0 1 0
1660 1 22.924790236192433 0.09548796540213278 9.565329491063256 0 1 0
1706 1 30.56347441415271 -1.1261373428930552 6.275577179395587 0 1 1
42 1 33.003387046107534 -0.8764369864666639 8.366906317568485 -1 0 0
213 1 33.97522806001902 -1.2236384184490772 6.242775417340443 -1 0 0
1213 1 -1.186489288239601 5.389359901836664 7.254876310606745 1 0 0
248 1 -1.4676668089929055 1.9197869118969138 9.421387308073662 0 0 0
1103 1 2.5906406422452317 5.592837797199984 6.2553789700846405 0 1 1
592 1 5.037354929906084 4.6998235207151025 9.705289553319119 0 0 0
654 1 6.000754150535961 3.026431781963325 5.730023391818307 0 0 0
558 1 7.611507363191187 1.918629413610767 6.957118008247674 0 1 1
124 1 7.458873375257648 4.744561949036469 6.33419133922456 0 0 0
1548 1 6.236260090862027 3.6040272196596286 8.041323481467483 1 0 0
1026 1 9.239379983888158 3.169934412443868 5.80185087646319 0 1 1
120 1 9.749207609636066 5.315743985083108 6.803411917447738 0 0 0
1090 1 13.307995936944035 2.9369222563175432 7.41937038935729 0 1 1
1219 1 11.342174889137382 4.48336319429003 8.294464739790884 0 0 0
964 1 15.560660465668224 3.257793477645026 7.935430240672542 0 1 0
1046 1 14.065719875337859 4.6174691777469805 6.132554560779242 0 1 0
155 1 16.558814626522654 4.394879451243598 9.759834069778252 0 0 0
253 1 21.738084990580404 4.022300424623512 8.93304362125219 0 0 0
19 1 26.041289914989267 4.92020883551797 7.174160646124825 -1 0 0
1271 1 22.79031096674224 2.048105085128584 8.166064876508702 0 0 0