LAMMPS (2 Aug 2023 - Update 1)
OMP_NUM_THREADS environment is not set. Defaulting to 1 thread. (src/comm.cpp:98)
  using 1 OpenMP thread(s) per MPI task
Loaded 1 plugins from /scicomp/builds/Rocky/8.7/Zen3/software/DeePMD/2.2.10-gpu/lib/deepmd_lmp
echo both

# Define variables
variable	temperature equal 300.0 # Target temperature in K
variable	tempDamp equal 0.1 # Relaxation time for thermostat in ps
variable        pressure equal 1. # Target pressure in bar
variable        pressureDamp equal 1.0 # Relaxation time for barostat in ps
variable	out_freq equal 100 # Output frequency in steps
variable        seed equal 745823 # Random seed for generating velocities

units		metal
atom_style	atomic
read_data      ./solid_supercell_3x3x3.data
Reading data file ...
  orthogonal box = (0 0 0) to (33.040276 33.040276 33.040276)
  1 by 1 by 1 MPI processor grid
  reading atoms ...
  1728 atoms
  read_data CPU = 0.013 seconds
mass 		1 28.0

timestep	0.001
neigh_modify    delay 10 every 1
pair_style      deepmd ./frozen_model_1_compressed.pb ./frozen_model_2_compressed.pb ./frozen_model_3_compressed.pb ./frozen_model_4_compressed.pb out_file md_solid.out out_freq ${out_freq}
pair_style      deepmd ./frozen_model_1_compressed.pb ./frozen_model_2_compressed.pb ./frozen_model_3_compressed.pb ./frozen_model_4_compressed.pb out_file md_solid.out out_freq 100
Summary of lammps deepmd module ...
  >>> Info of deepmd-kit:
  installed to:       /scicomp/builds/Rocky/8.7/Zen3/software/DeePMD/2.2.10-gpu
  source:             v2.2.10
  source branch:      HEAD
  source commit:      f8a0b3128
  source commit at:   2024-04-06 14:46:23 -0400
  support model ver.: 1.1 
  build variant:      cuda
  build with tf inc:  /scicomp/builds/Rocky/8.7/Zen3/software/DeePMD/2.2.10-gpu/include;/scicomp/builds/Rocky/8.7/Zen3/software/DeePMD/2.2.10-gpu/include
  build with tf lib:  /scicomp/builds/Rocky/8.7/Zen3/software/DeePMD/2.2.10-gpu/lib/libtensorflow_cc.so
  set tf intra_op_parallelism_threads: 0
  set tf inter_op_parallelism_threads: 0
  >>> Info of lammps module:
  use deepmd-kit at:  /scicomp/builds/Rocky/8.7/Zen3/software/DeePMD/2.2.10-gpupair_coeff      * *
thermo          ${out_freq}
thermo          100
thermo_style 	custom step temp pe etotal epair emol press lx ly lz vol
restart 	${out_freq} restart.lmp restart2.lmp
restart 	100 restart.lmp restart2.lmp

# Production run in NPT
#
dump            myDump all atom ${out_freq} si_solid.lammps-dump-text
dump            myDump all atom 100 si_solid.lammps-dump-text

timer           timeout 00:55:00 every 1000
New timer settings: style=normal  mode=nosync  timeout=00:55:00

fix             thermo_print all print ${out_freq} "$(step) $(temp) $(press) $(enthalpy) $(vol)" file thermo_solid.txt screen no title "#step temp press enthalpy vol"
fix             thermo_print all print 100 "$(step) $(temp) $(press) $(enthalpy) $(vol)" file thermo_solid.txt screen no title "#step temp press enthalpy vol"
fix             1 all nph iso ${pressure} ${pressure} ${pressureDamp}
fix             1 all nph iso 1 ${pressure} ${pressureDamp}
fix             1 all nph iso 1 1 ${pressureDamp}
fix             1 all nph iso 1 1 1
fix             2 all temp/csvr ${temperature} ${temperature} ${tempDamp} ${seed}
fix             2 all temp/csvr 300 ${temperature} ${tempDamp} ${seed}
fix             2 all temp/csvr 300 300 ${tempDamp} ${seed}
fix             2 all temp/csvr 300 300 0.1 ${seed}
fix             2 all temp/csvr 300 300 0.1 745823
fix             3 all momentum 10000 linear 1 1 1 rescale

velocity 	all create ${temperature} ${seed} dist gaussian
velocity 	all create 300 ${seed} dist gaussian
velocity 	all create 300 745823 dist gaussian

run             100000 upto # 100 ps

CITE-CITE-CITE-CITE-CITE-CITE-CITE-CITE-CITE-CITE-CITE-CITE-CITE

Your simulation uses code contributions which should be cited:

- USER-DEEPMD package:

@article{Wang_ComputPhysCommun_2018_v228_p178,
  author = {Wang, Han and Zhang, Linfeng and Han, Jiequn and E, Weinan},
  doi = {10.1016/j.cpc.2018.03.016},
  url = {https://doi.org/10.1016/j.cpc.2018.03.016},
  year = 2018,
  month = {jul},
  publisher = {Elsevier {BV}},
  volume = 228,
  journal = {Comput. Phys. Commun.},
  title = {{DeePMD-kit: A deep learning package for many-body potential energy representation and molecular dynamics}},
  pages = {178--184}
}
@misc{Zeng_JChemPhys_2023_v159_p054801,
  title  = {{DeePMD-kit v2: A software package for deep potential models}},
  author =   {Jinzhe Zeng and Duo Zhang and Denghui Lu and Pinghui Mo and Zeyu Li
         and Yixiao Chen and Mari{\'a}n Rynik and Li'ang Huang and Ziyao Li and 
         Shaochen Shi and Yingze Wang and Haotian Ye and Ping Tuo and Jiabin
         Yang and Ye Ding and Yifan Li and Davide Tisi and Qiyu Zeng and Han 
         Bao and Yu Xia and Jiameng Huang and Koki Muraoka and Yibo Wang and 
         Junhan Chang and Fengbo Yuan and Sigbj{\o}rn L{\o}land Bore and Chun
         Cai and Yinnian Lin and Bo Wang and Jiayan Xu and Jia-Xin Zhu and 
         Chenxing Luo and Yuzhi Zhang and Rhys E A Goodall and Wenshuo Liang
         and Anurag Kumar Singh and Sikai Yao and Jingchao Zhang and Renata
         Wentzcovitch and Jiequn Han and Jie Liu and Weile Jia and Darrin M
         York and Weinan E and Roberto Car and Linfeng Zhang and Han Wang},
  journal =  {J. Chem. Phys.},
  volume =   159,
  issue =    5,  
  year =    2023,
  pages  =   054801,
  doi =      {10.1063/5.0155600},
}

CITE-CITE-CITE-CITE-CITE-CITE-CITE-CITE-CITE-CITE-CITE-CITE-CITE

Generated 0 of 0 mixed pair_coeff terms from geometric mixing rule
Neighbor list info ...
  update: every = 1 steps, delay = 10 steps, check = yes
  max neighbors/atom: 2000, page size: 100000
  master list distance cutoff = 8
  ghost atom cutoff = 8
  binsize = 4, bins = 9 9 9
  1 neighbor lists, perpetual/occasional/extra = 1 0 0
  (1) pair deepmd, perpetual
      attributes: full, newton on
      pair build: full/bin/atomonly
      stencil: full/bin/3d
      bin: standard
Per MPI rank memory allocation (min/avg/max) = 3.708 | 3.708 | 3.708 Mbytes
   Step          Temp          PotEng         TotEng         E_pair         E_mol          Press            Lx             Ly             Lz           Volume    
         0   300           -185070.88     -185003.91     -185070.88      0             -6228.5571      33.040276      33.040276      33.040276      36068.744    
       100   304.0363      -185075.04     -185007.17     -185075.04      0              5005.8665      32.920942      32.920942      32.920942      35679.337    
       200   364.37405     -185088.17     -185006.83     -185088.17      0              198.32301      32.972326      32.972326      32.972326      35846.663    
       300   364.08149     -185085.43     -185004.15     -185085.43      0             -1940.5822      32.994419      32.994419      32.994419      35918.77     
       400   276.42366     -185071.09     -185009.39     -185071.09      0              3550.0517      32.927976      32.927976      32.927976      35702.209    
       500   314.02226     -185079.64     -185009.54     -185079.64      0             -4185.9584      33.009775      33.009775      33.009775      35968.944    
       600   297.73576     -185075.33     -185008.87     -185075.33      0              1374.7843      32.955705      32.955705      32.955705      35792.482    
       700   328.95612     -185083.56     -185010.13     -185083.56      0              1101.1777      32.95648       32.95648       32.95648       35795.006    
       800   286.43632     -185072.99     -185009.05     -185072.99      0             -2575.4504      32.997         32.997         32.997         35927.199    
       900   262.55184     -185069.74     -185011.13     -185069.74      0              2260.243       32.942273      32.942273      32.942273      35748.734    
      1000   267.40401     -185071.69     -185011.99     -185071.69      0             -1332.846       32.986341      32.986341      32.986341      35892.396    
      1100   332.48103     -185087.7      -185013.48     -185087.7       0             -17.186903      32.971615      32.971615      32.971615      35844.346    
      1200   293.9917      -185080.22     -185014.59     -185080.22      0              2053.3241      32.944983      32.944983      32.944983      35757.558    
      1300   275.79883     -185076        -185014.44     -185076         0             -2735.0578      32.994799      32.994799      32.994799      35920.011    
      1400   294.89971     -185079.76     -185013.92     -185079.76      0              1050.8637      32.955082      32.955082      32.955082      35790.453    
      1500   315.74624     -185081.75     -185011.27     -185081.75      0              39.06594       32.965708      32.965708      32.965708      35825.086    
      1600   284.64719     -185073.03     -185009.48     -185073.03      0             -1847.2044      32.986899      32.986899      32.986899      35894.216    
      1700   304.81552     -185076.43     -185008.38     -185076.43      0              1462.1025      32.951254      32.951254      32.951254      35777.983    
      1800   310.61738     -185080.13     -185010.79     -185080.13      0             -756.40418      32.979489      32.979489      32.979489      35870.031    
      1900   312.94086     -185079.15     -185009.29     -185079.15      0              32.76933       32.973197      32.973197      32.973197      35849.507    
      2000   271.44308     -185071.29     -185010.69     -185071.29      0              1444.7812      32.954434      32.954434      32.954434      35788.341    
      2100   301.6487      -185078.66     -185011.32     -185078.66      0             -1809.481       32.983845      32.983845      32.983845      35884.249    
      2200   315.06837     -185081.95     -185011.62     -185081.95      0              786.3701       32.962923      32.962923      32.962923      35816.005    
      2300   339.6543      -185085.24     -185009.41     -185085.24      0              939.40935      32.960852      32.960852      32.960852      35809.254    
      2400   321.48348     -185079.59     -185007.83     -185079.59      0             -1360.7189      32.98231       32.98231       32.98231       35879.239    
      2500   303.98611     -185076.94     -185009.08     -185076.94      0              1094.6629      32.959203      32.959203      32.959203      35803.88     
      2600   297.54618     -185076.61     -185010.18     -185076.61      0              176.84952      32.972286      32.972286      32.972286      35846.536    
      2700   307.06073     -185079.47     -185010.92     -185079.47      0              16.674156      32.970143      32.970143      32.970143      35839.545    
      2800   294.15075     -185076.91     -185011.25     -185076.91      0              795.84662      32.960255      32.960255      32.960255      35807.311    
      2900   268.71035     -185069.36     -185009.38     -185069.36      0             -465.06445      32.977117      32.977117      32.977117      35862.294    
      3000   290.55229     -185076.8      -185011.94     -185076.8       0              329.50046      32.966507      32.966507      32.966507      35827.688    
      3100   338.11208     -185083.56     -185008.08     -185083.56      0              562.16823      32.967696      32.967696      32.967696      35831.567    
      3200   322.56603     -185081.16     -185009.16     -185081.16      0              44.972855      32.968966      32.968966      32.968966      35835.707    
      3300   296.30323     -185076.45     -185010.3      -185076.45      0             -269.48401      32.970134      32.970134      32.970134      35839.515    
      3400   285.02748     -185077.68     -185014.06     -185077.68      0             -258.10906      32.970146      32.970146      32.970146      35839.555    
      3500   302.074       -185081.61     -185014.17     -185081.61      0              34.409008      32.966822      32.966822      32.966822      35828.716    
      3600   283.24709     -185076.08     -185012.85     -185076.08      0             -208.45933      32.970175      32.970175      32.970175      35839.649    
      3700   292.91732     -185074.1      -185008.71     -185074.1       0              292.09516      32.967476      32.967476      32.967476      35830.848    
      3800   300.41018     -185078.59     -185011.53     -185078.59      0             -68.995789      32.969796      32.969796      32.969796      35838.415    
      3900   294.57507     -185079.59     -185013.84     -185079.59      0             -156.44834      32.971636      32.971636      32.971636      35844.415    
      4000   308.9725      -185083.68     -185014.7      -185083.68      0              506.29723      32.963983      32.963983      32.963983      35819.46     
      4100   310.26095     -185081.43     -185012.17     -185081.43      0             -202.90676      32.969373      32.969373      32.969373      35837.035    
      4200   293.08251     -185074.85     -185009.42     -185074.85      0             -412.6803       32.971297      32.971297      32.971297      35843.308    
      4300   298.43766     -185080.06     -185013.44     -185080.06      0             -248.18813      32.968179      32.968179      32.968179      35833.139    
      4400   316.32194     -185084.19     -185013.58     -185084.19      0             -446.12875      32.97151       32.97151       32.97151       35844.002    
      4500   297.67549     -185078.16     -185011.71     -185078.16      0              286.16492      32.967271      32.967271      32.967271      35830.181    
      4600   289.68946     -185079        -185014.33     -185079         0              393.29818      32.963096      32.963096      32.963096      35816.569    
      4700   291.69955     -185078.07     -185012.96     -185078.07      0             -715.77338      32.976339      32.976339      32.976339      35859.756    
      4800   294.22936     -185078.42     -185012.74     -185078.42      0              181.71935      32.966296      32.966296      32.966296      35827.002    
      4900   298.31348     -185077.65     -185011.06     -185077.65      0              331.08311      32.965218      32.965218      32.965218      35823.489    
      5000   310.61872     -185079.53     -185010.19     -185079.53      0             -546.50899      32.976691      32.976691      32.976691      35860.902    
      5100   302.77738     -185078.74     -185011.15     -185078.74      0              871.23575      32.962112      32.962112      32.962112      35813.361    
      5200   305.5817      -185080.25     -185012.03     -185080.25      0             -312.47783      32.9708        32.9708        32.9708        35841.688    
      5300   295.02348     -185079.9      -185014.04     -185079.9       0             -546.88841      32.973841      32.973841      32.973841      35851.607    
      5400   319.60465     -185083.88     -185012.53     -185083.88      0              1267.1884      32.957818      32.957818      32.957818      35799.368    
      5500   293.31557     -185078.12     -185012.65     -185078.12      0             -352.22938      32.974957      32.974957      32.974957      35855.248    
      5600   260.88156     -185073.22     -185014.99     -185073.22      0             -156.61841      32.971104      32.971104      32.971104      35842.679    
      5700   287.438       -185077.6      -185013.44     -185077.6       0              751.1018       32.959099      32.959099      32.959099      35803.543    
      5800   305.73058     -185081.23     -185012.98     -185081.23      0             -857.13653      32.978308      32.978308      32.978308      35866.178    
      5900   314.69491     -185082.09     -185011.84     -185082.09      0              843.22157      32.962311      32.962311      32.962311      35814.01     
      6000   320.46643     -185081.31     -185009.78     -185081.31      0              184.16189      32.967976      32.967976      32.967976      35832.478    
      6100   315.48901     -185079.81     -185009.38     -185079.81      0             -1046.274       32.979101      32.979101      32.979101      35868.766    
      6200   303.08215     -185078.58     -185010.93     -185078.58      0              859.74932      32.958893      32.958893      32.958893      35802.871    
      6300   298.90897     -185080.06     -185013.33     -185080.06      0             -474.7735       32.973178      32.973178      32.973178      35849.445    
      6400   294.31753     -185079.38     -185013.68     -185079.38      0             -338.34203      32.971055      32.971055      32.971055      35842.52     
      6500   289.44541     -185077.58     -185012.96     -185077.58      0              531.67626      32.963         32.963         32.963         35816.257    
      6600   308.44118     -185082.21     -185013.35     -185082.21      0             -425.96101      32.974363      32.974363      32.974363      35853.311    
      6700   308.58696     -185077.97     -185009.08     -185077.97      0              642.74435      32.963408      32.963408      32.963408      35817.587    
      6800   306.7546      -185075.99     -185007.51     -185075.99      0             -884.05475      32.97769       32.97769       32.97769       35864.161    
      6900   302.96169     -185077.36     -185009.73     -185077.36      0             -369.80601      32.971003      32.971003      32.971003      35842.351    
      7000   318.048       -185081.96     -185010.96     -185081.96      0              511.90542      32.964206      32.964206      32.964206      35820.187    
      7100   304.20954     -185077.98     -185010.07     -185077.98      0             -400.48223      32.976003      32.976003      32.976003      35858.66     
      7200   291.26255     -185075.11     -185010.09     -185075.11      0              577.77115      32.962032      32.962032      32.962032      35813.102    
      7300   295.94544     -185076.5      -185010.44     -185076.5       0             -546.59605      32.974562      32.974562      32.974562      35853.958    
      7400   306.33494     -185080.93     -185012.55     -185080.93      0              267.82783      32.968755      32.968755      32.968755      35835.021    
      7500   298.92823     -185076.72     -185009.99     -185076.72      0              1252.2342      32.959085      32.959085      32.959085      35803.497    
      7600   287.77772     -185076.09     -185011.85     -185076.09      0             -1276.7854      32.981643      32.981643      32.981643      35877.061    
      7700   281.35135     -185075.18     -185012.38     -185075.18      0              531.31219      32.96137       32.96137       32.96137       35810.943    
      7800   302.36045     -185081.09     -185013.59     -185081.09      0             -239.94621      32.968915      32.968915      32.968915      35835.542    
      7900   314.02496     -185081.65     -185011.55     -185081.65      0             -854.67749      32.979344      32.979344      32.979344      35869.559    
      8000   314.40949     -185082.03     -185011.85     -185082.03      0              1949.8355      32.949667      32.949667      32.949667      35772.811    
      8100   283.96617     -185076.24     -185012.85     -185076.24      0             -1236.0282      32.98359       32.98359       32.98359       35883.415    
      8200   292.81309     -185078.16     -185012.79     -185078.16      0             -231.49494      32.971068      32.971068      32.971068      35842.563    
      8300   297.39508     -185080.45     -185014.06     -185080.45      0              1716.2339      32.950414      32.950414      32.950414      35775.246    
      8400   295.44503     -185076.52     -185010.57     -185076.52      0             -2072.7828      32.992308      32.992308      32.992308      35911.877    
      8500   285.50754     -185075.88     -185012.15     -185075.88      0              1360.8402      32.954067      32.954067      32.954067      35787.146    
      8600   297.82522     -185078.12     -185011.64     -185078.12      0              25.425905      32.968653      32.968653      32.968653      35834.688    
      8700   318.1056      -185082.44     -185011.43     -185082.44      0             -1334.7188      32.984661      32.984661      32.984661      35886.911    
      8800   318.82981     -185082.29     -185011.11     -185082.29      0              2208.0652      32.94739       32.94739       32.94739       35765.398    
      8900   300.57221     -185077.32     -185010.23     -185077.32      0             -1166.9054      32.983003      32.983003      32.983003      35881.499    
      9000   308.68962     -185077.52     -185008.61     -185077.52      0             -368.5468       32.973223      32.973223      32.973223      35849.59     
      9100   296.26932     -185074.51     -185008.37     -185074.51      0              1318.9349      32.957421      32.957421      32.957421      35798.074    
      9200   303.27715     -185079.52     -185011.82     -185079.52      0             -1666.4733      32.987191      32.987191      32.987191      35895.17     
      9300   299.50228     -185077.51     -185010.66     -185077.51      0              826.97418      32.959088      32.959088      32.959088      35803.505    
      9400   295.3246      -185076.87     -185010.95     -185076.87      0              228.59886      32.968012      32.968012      32.968012      35832.595    
      9500   300.44367     -185077.67     -185010.6      -185077.67      0             -990.0906       32.981803      32.981803      32.981803      35877.585    
      9600   316.2004      -185080.1      -185009.51     -185080.1       0              1493.9599      32.956434      32.956434      32.956434      35794.859    
      9700   312.36922     -185079.39     -185009.66     -185079.39      0             -564.23939      32.977046      32.977046      32.977046      35862.06     
      9800   304.79376     -185076.36     -185008.32     -185076.36      0             -517.84568      32.974538      32.974538      32.974538      35853.88     
      9900   303.91917     -185074.07     -185006.22     -185074.07      0              647.87476      32.964517      32.964517      32.964517      35821.203    
     10000   305.61012     -185077.77     -185009.54     -185077.77      0             -679.69208      32.978709      32.978709      32.978709      35867.488    
     10100   309.77843     -185078.22     -185009.07     -185078.22      0              731.18244      32.964174      32.964174      32.964174      35820.084    
     10200   316.93297     -185077.04     -185006.29     -185077.04      0              2.3333558      32.973674      32.973674      32.973674      35851.062    
     10300   312.51476     -185078.94     -185009.17     -185078.94      0             -264.7533       32.974162      32.974162      32.974162      35852.653    
     10400   307.96293     -185075.07     -185006.32     -185075.07      0              517.19054      32.9657        32.9657        32.9657        35825.06     
     10500   298.20644     -185073.77     -185007.2      -185073.77      0             -600.01805      32.978176      32.978176      32.978176      35865.748    
     10600   308.78763     -185078.5      -185009.57     -185078.5       0              380.60822      32.965292      32.965292      32.965292      35823.727    
     10700   314.81425     -185079.44     -185009.16     -185079.44      0             -233.68919      32.971807      32.971807      32.971807      35844.973    
     10800   314.26787     -185079.48     -185009.33     -185079.48      0             -435.9597       32.974857      32.974857      32.974857      35854.919    
     10900   301.55395     -185079.68     -185012.36     -185079.68      0              806.68013      32.960674      32.960674      32.960674      35808.675    
     11000   291.57206     -185076.01     -185010.93     -185076.01      0             -1019.2878      32.980429      32.980429      32.980429      35873.099    
     11100   282.74136     -185077.24     -185014.13     -185077.24      0              223.75255      32.965912      32.965912      32.965912      35825.751    
     11200   296.60562     -185078.53     -185012.32     -185078.53      0              436.39407      32.965177      32.965177      32.965177      35823.355    
     11300   295.5669      -185079.49     -185013.51     -185079.49      0             -910.90122      32.97859       32.97859       32.97859       35867.099    
     11400   293.46546     -185076.32     -185010.81     -185076.32      0              749.57598      32.961229      32.961229      32.961229      35810.484    
     11500   302.00763     -185078.6      -185011.19     -185078.6       0             -292.63005      32.972833      32.972833      32.972833      35848.319    
     11600   317.01015     -185082.34     -185011.57     -185082.34      0             -116.40659      32.973379      32.973379      32.973379      35850.099    
     11700   322.4509      -185082.35     -185010.37     -185082.35      0              1254.8416      32.958374      32.958374      32.958374      35801.18     
     11800   300.03487     -185079.25     -185012.28     -185079.25      0             -883.14493      32.978453      32.978453      32.978453      35866.653    
     11900   295.59827     -185077.06     -185011.08     -185077.06      0             -24.454931      32.967755      32.967755      32.967755      35831.758    
     12000   297.95507     -185074.77     -185008.26     -185074.77      0              256.15083      32.968399      32.968399      32.968399      35833.859    
     12100   307.64287     -185077.37     -185008.69     -185077.37      0             -387.47598      32.976726      32.976726      32.976726      35861.019    
     12200   314.71568     -185078.24     -185007.98     -185078.24      0              681.03027      32.963449      32.963449      32.963449      35817.72     
     12300   303.45217     -185076.29     -185008.55     -185076.29      0             -456.67686      32.974793      32.974793      32.974793      35854.712    
     12400   294.66999     -185075.97     -185010.19     -185075.97      0             -362.312        32.973215      32.973215      32.973215      35849.564    
     12500   314.59379     -185080.35     -185010.12     -185080.35      0              214.61033      32.967193      32.967193      32.967193      35829.925    
     12600   306.43077     -185079.76     -185011.35     -185079.76      0             -232.32692      32.972227      32.972227      32.972227      35846.342    
     12700   301.86749     -185076.01     -185008.62     -185076.01      0              255.85617      32.968381      32.968381      32.968381      35833.798    
     12800   311.39369     -185077.82     -185008.31     -185077.82      0             -286.35995      32.972926      32.972926      32.972926      35848.623    
     12900   308.808       -185078.07     -185009.13     -185078.07      0              50.527181      32.969567      32.969567      32.969567      35837.669    
     13000   305.40915     -185077.16     -185008.98     -185077.16      0             -44.200873      32.972397      32.972397      32.972397      35846.896    
     13100   306.04379     -185079.33     -185011.01     -185079.33      0              329.80689      32.967173      32.967173      32.967173      35829.86     
     13200   298.32234     -185077.87     -185011.28     -185077.87      0              240.62         32.967872      32.967872      32.967872      35832.138    
     13300   294.37192     -185078.38     -185012.67     -185078.38      0             -700.54955      32.97618       32.97618       32.97618       35859.236    
     13400   298.50782     -185077.18     -185010.55     -185077.18      0              481.19868      32.964999      32.964999      32.964999      35822.773    
     13500   304.52822     -185080.83     -185012.85     -185080.83      0              45.650387      32.967751      32.967751      32.967751      35831.745    
     13600   302.53797     -185076.42     -185008.89     -185076.42      0             -428.67225      32.976005      32.976005      32.976005      35858.665    
     13700   307.19792     -185079.64     -185011.07     -185079.64      0              1009.9798      32.959659      32.959659      32.959659      35805.367    
     13800   299.30434     -185079.15     -185012.34     -185079.15      0             -519.56379      32.976223      32.976223      32.976223      35859.377    
     13900   296.3327      -185078.77     -185012.62     -185078.77      0             -80.170158      32.969015      32.969015      32.969015      35835.868    
     14000   288.7614      -185078.33     -185013.87     -185078.33      0              650.80051      32.961312      32.961312      32.961312      35810.754    
     14100   284.94155     -185078.7      -185015.09     -185078.7       0             -928.82111      32.978133      32.978133      32.978133      35865.609    
     14200   296.44788     -185078.61     -185012.43     -185078.61      0              440.80813      32.964776      32.964776      32.964776      35822.045    
     14300   315.27004     -185079.17     -185008.79     -185079.17      0              546.13445      32.964721      32.964721      32.964721      35821.865    
     14400   301.15559     -185080.88     -185013.65     -185080.88      0             -819.57764      32.978142      32.978142      32.978142      35865.637    
     14500   300.97319     -185080.65     -185013.47     -185080.65      0              993.75559      32.958591      32.958591      32.958591      35801.885    
     14600   294.13549     -185079.04     -185013.38     -185079.04      0             -357.7287       32.971973      32.971973      32.971973      35845.514    
     14700   290.70093     -185078.31     -185013.42     -185078.31      0             -525.05257      32.97515       32.97515       32.97515       35855.877    
     14800   299.17386     -185077.48     -185010.7      -185077.48      0              987.65186      32.95864       32.95864       32.95864       35802.046    
     14900   303.42827     -185077.08     -185009.34     -185077.08      0             -1067.3598      32.980832      32.980832      32.980832      35874.414    
     15000   296.79115     -185076.84     -185010.59     -185076.84      0              536.25065      32.965464      32.965464      32.965464      35824.289    
     15100   312.41178     -185081.16     -185011.42     -185081.16      0              377.55234      32.965185      32.965185      32.965185      35823.378    
     15200   303.51767     -185080.6      -185012.84     -185080.6       0             -978.60375      32.979608      32.979608      32.979608      35870.421    
     15300   302.66549     -185079.54     -185011.98     -185079.54      0              982.27308      32.958874      32.958874      32.958874      35802.81     
     15400   303.14469     -185078.66     -185010.99     -185078.66      0             -665.10368      32.975799      32.975799      32.975799      35857.994    
     15500   296.88378     -185077.1      -185010.83     -185077.1       0             -415.09         32.974053      32.974053      32.974053      35852.297    
     15600   295.64143     -185079.44     -185013.44     -185079.44      0              1076.7565      32.95653       32.95653       32.95653       35795.172    
     15700   297.04324     -185079.08     -185012.77     -185079.08      0             -1383.4938      32.983752      32.983752      32.983752      35883.943    
     15800   295.67043     -185077.16     -185011.16     -185077.16      0              951.93343      32.960745      32.960745      32.960745      35808.906    
     15900   301.289       -185078.66     -185011.4      -185078.66      0              263.38136      32.967634      32.967634      32.967634      35831.364    
     16000   305.18955     -185078.32     -185010.19     -185078.32      0             -1044.8874      32.980643      32.980643      32.980643      35873.797    
     16100   293.75228     -185076.57     -185011        -185076.57      0              1229.1087      32.955047      32.955047      32.955047      35790.34     
     16200   297.28629     -185076.16     -185009.8      -185076.16      0             -1351.904       32.984693      32.984693      32.984693      35887.014    
     16300   311.22281     -185081.35     -185011.87     -185081.35      0              509.70782      32.963902      32.963902      32.963902      35819.198    
     16400   300.00107     -185080.67     -185013.7      -185080.67      0              1012.2918      32.960143      32.960143      32.960143      35806.946    
     16500   308.55939     -185078.34     -185009.46     -185078.34      0             -1429.8169      32.986585      32.986585      32.986585      35893.191    
     16600   298.82153     -185077.21     -185010.51     -185077.21      0              1575.6309      32.953093      32.953093      32.953093      35783.972    
     16700   296.80683     -185076.87     -185010.61     -185076.87      0             -581.64743      32.977629      32.977629      32.977629      35863.964    
     16800   305.42349     -185079.5      -185011.32     -185079.5       0             -452.07788      32.975947      32.975947      32.975947      35858.475    
     16900   307.69675     -185079.6      -185010.91     -185079.6       0              1881.533       32.950201      32.950201      32.950201      35774.552    
     17000   300.60034     -185077.43     -185010.33     -185077.43      0             -1813.9073      32.988997      32.988997      32.988997      35901.065    
     17100   305.79308     -185077.3      -185009.04     -185077.3       0              645.15037      32.962683      32.962683      32.962683      35815.225    
     17200   313.99619     -185080.98     -185010.89     -185080.98      0              975.19711      32.9608        32.9608        32.9608        35809.084    
     17300   317.03406     -185081.38     -185010.61     -185081.38      0             -1396.2552      32.9869        32.9869        32.9869        35894.218    
     17400   304.93871     -185076.91     -185008.84     -185076.91      0              1934.4008      32.951459      32.951459      32.951459      35778.648    
     17500   297.79439     -185077.74     -185011.26     -185077.74      0             -883.83893      32.977607      32.977607      32.977607      35863.891    
     17600   291.64888     -185075.66     -185010.55     -185075.66      0             -819.4585       32.978337      32.978337      32.978337      35866.275    
     17700   300.29492     -185080.31     -185013.27     -185080.31      0              1801.7711      32.950035      32.950035      32.950035      35774.012    
     17800   298.21406     -185081.73     -185015.16     -185081.73      0             -1736.6181      32.987143      32.987143      32.987143      35895.014    
     17900   293.13974     -185079.39     -185013.95     -185079.39      0              854.53252      32.95888       32.95888       32.95888       35802.828    
     18000   292.54506     -185079.57     -185014.27     -185079.57      0              342.55276      32.96521       32.96521       32.96521       35823.46     
     18100   302.65661     -185082.12     -185014.55     -185082.12      0             -1413.9526      32.983424      32.983424      32.983424      35882.875    
     18200   303.45955     -185080.07     -185012.32     -185080.07      0              1893.69        32.94989       32.94989       32.94989       35773.539    
     18300   300.00018     -185078.79     -185011.82     -185078.79      0             -998.92172      32.97932       32.97932       32.97932       35869.482    
     18400   292.19154     -185076.7      -185011.48     -185076.7       0             -201.43523      32.971857      32.971857      32.971857      35845.134    
     18500   300.81173     -185079.32     -185012.17     -185079.32      0              950.538        32.958765      32.958765      32.958765      35802.454    
     18600   297.31765     -185078.16     -185011.79     -185078.16      0             -1094.6192      32.98186       32.98186       32.98186       35877.768    
     18700   295.93682     -185079.37     -185013.31     -185079.37      0              910.42745      32.95851       32.95851       32.95851       35801.622    
     18800   301.70499     -185079.51     -185012.16     -185079.51      0             -288.73201      32.971431      32.971431      32.971431      35843.746    
     18900   294.67197     -185078.31     -185012.53     -185078.31      0             -367.00192      32.973559      32.973559      32.973559      35850.688    
     19000   299.61002     -185078.67     -185011.79     -185078.67      0              678.94201      32.962575      32.962575      32.962575      35814.872    
     19100   300.96146     -185079.96     -185012.77     -185079.96      0             -631.72607      32.974603      32.974603      32.974603      35854.093    
     19200   296.96219     -185076.84     -185010.55     -185076.84      0              318.17122      32.967122      32.967122      32.967122      35829.694    
     19300   309.13339     -185079.56     -185010.56     -185079.56      0              335.29615      32.965791      32.965791      32.965791      35825.354    
     19400   308.39135     -185079.86     -185011.02     -185079.86      0             -390.20431      32.974009      32.974009      32.974009      35852.154    
     19500   293.87641     -185076.84     -185011.24     -185076.84      0              421.79973      32.964915      32.964915      32.964915      35822.498    
     19600   298.62756     -185077.39     -185010.73     -185077.39      0             -281.43193      32.970902      32.970902      32.970902      35842.022    
     19700   289.66267     -185077.19     -185012.53     -185077.19      0             -339.59294      32.971719      32.971719      32.971719      35844.685    
     19800   304.97709     -185082.05     -185013.97     -185082.05      0              310.12402      32.964795      32.964795      32.964795      35822.108    
     19900   296.41234     -185080        -185013.83     -185080         0             -112.49544      32.969863      32.969863      32.969863      35838.633    
     20000   299.36878     -185079.98     -185013.15     -185079.98      0              97.866555      32.967152      32.967152      32.967152      35829.794    
     20100   297.13813     -185079.4      -185013.07     -185079.4       0              1.898952       32.968792      32.968792      32.968792      35835.141    
     20200   294.0971      -185079.23     -185013.58     -185079.23      0              27.236086      32.968575      32.968575      32.968575      35834.434    
     20300   295.94616     -185081.27     -185015.21     -185081.27      0              55.930165      32.966441      32.966441      32.966441      35827.475    
     20400   296.21322     -185079.17     -185013.05     -185079.17      0             -132.05983      32.969637      32.969637      32.969637      35837.894    
     20500   298.38417     -185078.55     -185011.94     -185078.55      0              260.37446      32.967023      32.967023      32.967023      35829.372    
     20600   303.58834     -185080.92     -185013.15     -185080.92      0             -182.70235      32.970603      32.970603      32.970603      35841.045    
     20700   298.75341     -185079.58     -185012.89     -185079.58      0              69.693377      32.968631      32.968631      32.968631      35834.615    
     20800   292.80345     -185078.69     -185013.33     -185078.69      0              217.06143      32.96568       32.96568       32.96568       35824.993    
     20900   293.86148     -185077.4      -185011.8      -185077.4       0             -319.24565      32.972878      32.972878      32.972878      35848.464    
     21000   297.89075     -185079.03     -185012.53     -185079.03      0              280.06531      32.967902      32.967902      32.967902      35832.236    
     21100   306.74626     -185080.17     -185011.7      -185080.17      0              159.143        32.967691      32.967691      32.967691      35831.551    
     21200   305.83677     -185078.81     -185010.53     -185078.81      0             -189.62913      32.970026      32.970026      32.970026      35839.164    
     21300   287.06165     -185078.12     -185014.04     -185078.12      0             -12.807806      32.968868      32.968868      32.968868      35835.389    
     21400   300.39678     -185080.57     -185013.51     -185080.57      0              90.014106      32.967911      32.967911      32.967911      35832.266    
     21500   299.82462     -185081.55     -185014.62     -185081.55      0              65.498776      32.967888      32.967888      32.967888      35832.191    
     21600   306.56933     -185079.42     -185010.99     -185079.42      0             -59.433832      32.968461      32.968461      32.968461      35834.062    
     21700   293.11207     -185077.22     -185011.79     -185077.22      0             -346.46254      32.971234      32.971234      32.971234      35843.103    
     21800   290.78128     -185077.73     -185012.81     -185077.73      0             -147.6333       32.970421      32.970421      32.970421      35840.453    
     21900   297.61891     -185080.54     -185014.11     -185080.54      0              324.28729      32.965986      32.965986      32.965986      35825.992    
     22000   309.88408     -185079.31     -185010.13     -185079.31      0             -147.18076      32.972702      32.972702      32.972702      35847.891    
     22100   308.53247     -185077.86     -185008.99     -185077.86      0              105.13392      32.968549      32.968549      32.968549      35834.347    
     22200   301.08695     -185079.33     -185012.12     -185079.33      0              170.22769      32.967738      32.967738      32.967738      35831.703    
     22300   290.11036     -185076.42     -185011.66     -185076.42      0             -159.9288       32.972151      32.972151      32.972151      35846.094    
     22400   305.04136     -185077.86     -185009.76     -185077.86      0              314.61853      32.966221      32.966221      32.966221      35826.756    
     22500   303.9368      -185078.89     -185011.05     -185078.89      0             -44.981312      32.969915      32.969915      32.969915      35838.803    
     22600   300.364       -185078.56     -185011.51     -185078.56      0             -371.59136      32.972644      32.972644      32.972644      35847.703    
     22700   294.25553     -185077.56     -185011.87     -185077.56      0              212.58043      32.965274      32.965274      32.965274      35823.67     
     22800   293.47039     -185079.52     -185014.01     -185079.52      0             -390.01604      32.972034      32.972034      32.972034      35845.714    
     22900   295.47503     -185080.64     -185014.68     -185080.64      0              143.72532      32.965912      32.965912      32.965912      35825.748    
     23000   292.82353     -185080        -185014.63     -185080         0              170.45968      32.966284      32.966284      32.966284      35826.962    
     23100   295.8744      -185077.71     -185011.66     -185077.71      0             -324.86912      32.974331      32.974331      32.974331      35853.203    
     23200   294.13193     -185077.29     -185011.63     -185077.29      0              645.51009      32.96285       32.96285       32.96285       35815.769    
     23300   306.44843     -185078.49     -185010.08     -185078.49      0             -652.87304      32.976018      32.976018      32.976018      35858.708    
     23400   309.70584     -185079.65     -185010.51     -185079.65      0              356.47882      32.967516      32.967516      32.967516      35830.979    
     23500   307.57369     -185079.43     -185010.77     -185079.43      0              675.49869      32.964406      32.964406      32.964406      35820.841    
     23600   298.99544     -185079.78     -185013.03     -185079.78      0             -649.55159      32.976977      32.976977      32.976977      35861.835    
     23700   302.4216      -185081.3      -185013.79     -185081.3       0              632.66829      32.961079      32.961079      32.961079      35809.995    
     23800   296.64829     -185079.86     -185013.64     -185079.86      0             -73.712047      32.970533      32.970533      32.970533      35840.816    
     23900   300.63902     -185076.55     -185009.44     -185076.55      0             -333.95689      32.974327      32.974327      32.974327      35853.19     
     24000   309.75751     -185076.79     -185007.64     -185076.79      0              740.02444      32.962828      32.962828      32.962828      35815.694    
     24100   307.93843     -185078.4      -185009.65     -185078.4       0             -865.05294      32.980199      32.980199      32.980199      35872.349    
     24200   309.89076     -185078.33     -185009.15     -185078.33      0              493.08527      32.96599       32.96599       32.96599       35826.003    
     24300   302.64483     -185078.12     -185010.56     -185078.12      0              473.11378      32.966182      32.966182      32.966182      35826.629    
     24400   304.2194      -185077.87     -185009.96     -185077.87      0             -1135.5312      32.981609      32.981609      32.981609      35876.949    
     24500   300.12544     -185079.21     -185012.22     -185079.21      0              1115.4831      32.956821      32.956821      32.956821      35796.118    
     24600   296.32307     -185079.54     -185013.39     -185079.54      0             -643.72358      32.975818      32.975818      32.975818      35858.054    
     24700   295.97124     -185078.56     -185012.49     -185078.56      0             -162.73064      32.971501      32.971501      32.971501      35843.974    
     24800   297.87525     -185076.58     -185010.08     -185076.58      0              994.12965      32.959367      32.959367      32.959367      35804.415    
     24900   303.38376     -185076.06     -185008.34     -185076.06      0             -1484.0137      32.986392      32.986392      32.986392      35892.562    
     25000   308.07183     -185078.58     -185009.81     -185078.58      0              858.22716      32.960412      32.960412      32.960412      35807.821    
     25100   311.83694     -185074.78     -185005.17     -185074.78      0             -122.35507      32.972854      32.972854      32.972854      35848.387    
     25200   312.70476     -185075.55     -185005.75     -185075.55      0             -1226.1087      32.983944      32.983944      32.983944      35884.57     
     25300   305.96529     -185076.66     -185008.36     -185076.66      0              1644.4413      32.951944      32.951944      32.951944      35780.231    
     25400   307.07311     -185078.13     -185009.58     -185078.13      0             -1468.9898      32.986579      32.986579      32.986579      35893.17     
     25500   301.51359     -185078.42     -185011.11     -185078.42      0              395.37215      32.965637      32.965637      32.965637      35824.853    
     25600   294.7876      -185077.93     -185012.13     -185077.93      0              943.70546      32.959543      32.959543      32.959543      35804.989    
     25700   304.06496     -185077.37     -185009.5      -185077.37      0             -1672.3301      32.988421      32.988421      32.988421      35899.185    
     25800   300.3614      -185077.34     -185010.29     -185077.34      0              1622.8199      32.951001      32.951001      32.951001      35777.158    
     25900   305.60139     -185076.5      -185008.28     -185076.5       0             -1020.4001      32.981149      32.981149      32.981149      35875.448    
     26000   307.11902     -185077.15     -185008.6      -185077.15      0             -539.60542      32.975732      32.975732      32.975732      35857.776    
     26100   305.36814     -185076.73     -185008.56     -185076.73      0              1670.0975      32.95234       32.95234       32.95234       35781.519    
     26200   305.6282      -185078.76     -185010.53     -185078.76      0             -1965.581       32.991322      32.991322      32.991322      35908.658    
     26300   312.63739     -185080.99     -185011.2      -185080.99      0              1434.9232      32.953905      32.953905      32.953905      35786.619    
     26400   303.15238     -185077.6      -185009.93     -185077.6       0              147.78543      32.968754      32.968754      32.968754      35835.016    
     26500   296.55578     -185079.78     -185013.58     -185079.78      0             -1629.9629      32.986205      32.986205      32.986205      35891.95     
     26600   301.38636     -185081.56     -185014.28     -185081.56      0              1990.3464      32.945644      32.945644      32.945644      35759.711    
     26700   304.29647     -185078.12     -185010.19     -185078.12      0             -1418.5231      32.986113      32.986113      32.986113      35891.65     
     26800   292.46031     -185076.79     -185011.5      -185076.79      0              125.55532      32.967431      32.967431      32.967431      35830.704    
     26900   304.25315     -185075.79     -185007.87     -185075.79      0              1141.2223      32.957358      32.957358      32.957358      35797.867    
     27000   302.03391     -185077.6      -185010.18     -185077.6       0             -1833.67        32.991224      32.991224      32.991224      35908.337    
     27100   307.83858     -185079.87     -185011.15     -185079.87      0              1808.8197      32.951193      32.951193      32.951193      35777.784    
     27200   302.29539     -185081.34     -185013.86     -185081.34      0             -326.9624       32.971936      32.971936      32.971936      35845.391    
     27300   299.49274     -185079.01     -185012.16     -185079.01      0             -1019.9237      32.979227      32.979227      32.979227      35869.177    
     27400   295.61561     -185077.7      -185011.71     -185077.7       0              1603.6407      32.950744      32.950744      32.950744      35776.32     
     27500   306.76139     -185079.33     -185010.85     -185079.33      0             -1695.6265      32.987185      32.987185      32.987185      35895.148    
     27600   300.59145     -185078.7      -185011.6      -185078.7       0              704.88361      32.961947      32.961947      32.961947      35812.825    
     27700   295.09112     -185077.02     -185011.15     -185077.02      0              350.47868      32.964309      32.964309      32.964309      35820.524    
     27800   293.78803     -185077.2      -185011.62     -185077.2       0             -1343.014       32.982144      32.982144      32.982144      35878.695    
     27900   304.7774      -185079.28     -185011.24     -185079.28      0              1120.2423      32.957042      32.957042      32.957042      35796.839    
     28000   301.05058     -185079.91     -185012.71     -185079.91      0             -185.94385      32.971905      32.971905      32.971905      35845.292    
     28100   299.21531     -185078.53     -185011.74     -185078.53      0             -390.51562      32.97254       32.97254       32.97254       35847.361    
     28200   299.49334     -185077.22     -185010.37     -185077.22      0              803.04591      32.960742      32.960742      32.960742      35808.898    
     28300   308.64025     -185080.89     -185011.99     -185080.89      0             -778.19394      32.976762      32.976762      32.976762      35861.135    
     28400   307.81708     -185079.19     -185010.47     -185079.19      0              347.97666      32.967283      32.967283      32.967283      35830.219    
     28500   304.38635     -185077.67     -185009.73     -185077.67      0              422.98036      32.964422      32.964422      32.964422      35820.893    
     28600   301.7032      -185076.99     -185009.64     -185076.99      0             -723.36894      32.97782       32.97782       32.97782       35864.588    
     28700   305.06333     -185077.91     -185009.81     -185077.91      0              842.68722      32.960806      32.960806      32.960806      35809.104    
     28800   305.7764      -185077.98     -185009.72     -185077.98      0             -433.18037      32.974341      32.974341      32.974341      35853.236    
     28900   298.35546     -185076.41     -185009.81     -185076.41      0             -236.62788      32.971109      32.971109      32.971109      35842.695    
     29000   288.45741     -185077.02     -185012.63     -185077.02      0              578.83713      32.961263      32.961263      32.961263      35810.594    
     29100   303.25576     -185079.99     -185012.29     -185079.99      0             -895.71225      32.978344      32.978344      32.978344      35866.298    
     29200   307.97111     -185081.82     -185013.07     -185081.82      0              868.44155      32.961116      32.961116      32.961116      35810.114    
     29300   303.43411     -185077.81     -185010.07     -185077.81      0             -51.078053      32.970497      32.970497      32.970497      35840.701    
     29400   302.02247     -185076.87     -185009.45     -185076.87      0             -690.41249      32.976325      32.976325      32.976325      35859.708    
     29500   305.3343      -185078.05     -185009.88     -185078.05      0              889.9206       32.961957      32.961957      32.961957      35812.857    
     29600   304.12238     -185077.66     -185009.77     -185077.66      0             -373.16581      32.975505      32.975505      32.975505      35857.036    
     29700   315.7578      -185076.81     -185006.33     -185076.81      0              425.5127       32.968034      32.968034      32.968034      35832.667    
     29800   316.43838     -185077.66     -185007.03     -185077.66      0              386.10462      32.966892      32.966892      32.966892      35828.945    
     29900   309.82905     -185074.37     -185005.21     -185074.37      0             -869.87277      32.980473      32.980473      32.980473      35873.242    
     30000   306.00885     -185076.4      -185008.08     -185076.4       0              691.57821      32.962637      32.962637      32.962637      35815.075    
     30100   307.08993     -185077.99     -185009.44     -185077.99      0             -491.99224      32.975387      32.975387      32.975387      35856.651    
     30200   303.09018     -185075.88     -185008.23     -185075.88      0             -28.236477      32.971347      32.971347      32.971347      35843.473    
     30300   316.75208     -185076.62     -185005.91     -185076.62      0              826.78624      32.96319       32.96319       32.96319       35816.876    
     30400   309.75782     -185075.84     -185006.7      -185075.84      0             -781.89562      32.980705      32.980705      32.980705      35873.999    
     30500   298.61668     -185078.3      -185011.64     -185078.3       0              572.46631      32.962167      32.962167      32.962167      35813.54     
     30600   302.34107     -185078.37     -185010.87     -185078.37      0             -13.09082       32.970466      32.970466      32.970466      35840.598    
     30700   301.54039     -185077.91     -185010.6      -185077.91      0             -480.36387      32.977128      32.977128      32.977128      35862.329    
     30800   299.29782     -185079.22     -185012.41     -185079.22      0              1120.4362      32.958069      32.958069      32.958069      35800.187    
     30900   302.02965     -185076.91     -185009.49     -185076.91      0             -661.12182      32.977932      32.977932      32.977932      35864.954    
     31000   308.37139     -185077.09     -185008.25     -185077.09      0             -81.533387      32.970488      32.970488      32.970488      35840.67     
     31100   300.14943     -185076.29     -185009.29     -185076.29      0              491.23329      32.965018      32.965018      32.965018      35822.836    
     31200   304.64069     -185077.86     -185009.85     -185077.86      0             -932.71967      32.980578      32.980578      32.980578      35873.584    
     31300   311.52435     -185078.7      -185009.15     -185078.7       0              1027.956       32.959601      32.959601      32.959601      35805.179    
     31400   301.50997     -185078.93     -185011.62     -185078.93      0             -291.06803      32.974175      32.974175      32.974175      35852.695    
     31500   297.61329     -185077.76     -185011.32     -185077.76      0             -397.46707      32.97519       32.97519       32.97519       35856.005    
     31600   298.1806      -185079.17     -185012.61     -185079.17      0              1307.1384      32.953981      32.953981      32.953981      35786.866    
     31700   294.65894     -185078.82     -185013.04     -185078.82      0             -1649.143       32.98796       32.98796       32.98796       35897.68     
     31800   299.68317     -185080.74     -185013.84     -185080.74      0              1088.0914      32.957217      32.957217      32.957217      35797.41     
     31900   300.47538     -185081.17     -185014.09     -185081.17      0              421.99361      32.963233      32.963233      32.963233      35817.016    
     32000   304.41122     -185078.58     -185010.63     -185078.58      0             -1854.8981      32.99054       32.99054       32.99054       35906.103    
     32100   304.83269     -185078.13     -185010.08     -185078.13      0              2376.972       32.944642      32.944642      32.944642      35756.448    
     32200   302.9483      -185077.03     -185009.41     -185077.03      0             -1310.9653      32.985199      32.985199      32.985199      35888.668    
     32300   303.93292     -185078.92     -185011.07     -185078.92      0             -404.45627      32.973131      32.973131      32.973131      35849.29     
     32400   297.51316     -185076.96     -185010.54     -185076.96      0              1624.6021      32.95149       32.95149       32.95149       35778.751    
     32500   295.59337     -185075.69     -185009.7      -185075.69      0             -2347.4248      32.995903      32.995903      32.995903      35923.616    
     32600   304.04763     -185078.69     -185010.82     -185078.69      0              1792.544       32.950994      32.950994      32.950994      35777.136    
     32700   306.70385     -185077.4      -185008.94     -185077.4       0              74.233638      32.970745      32.970745      32.970745      35841.509    
     32800   295.35907     -185077.86     -185011.92     -185077.86      0             -1535.8773      32.986678      32.986678      32.986678      35893.494    
     32900   299.5867      -185078.55     -185011.67     -185078.55      0              2211.1772      32.944426      32.944426      32.944426      35755.747    
     33000   305.05744     -185077.96     -185009.86     -185077.96      0             -1783.2718      32.989816      32.989816      32.989816      35903.74     
     33100   309.14837     -185078.15     -185009.14     -185078.15      0              430.34465      32.965643      32.965643      32.965643      35824.873    
     33200   302.31693     -185078.53     -185011.05     -185078.53      0              1113.7762      32.957464      32.957464      32.957464      35798.214    
     33300   288.15605     -185077.83     -185013.5      -185077.83      0             -1945.424       32.989802      32.989802      32.989802      35903.694    
     33400   302.42042     -185079.9      -185012.39     -185079.9       0              1730.4751      32.950179      32.950179      32.950179      35774.479    
     33500   308.52632     -185081.44     -185012.57     -185081.44      0             -487.5146       32.976185      32.976185      32.976185      35859.252    
     33600   292.6604      -185079.43     -185014.1      -185079.43      0             -546.88179      32.974869      32.974869      32.974869      35854.961    
     33700   286.64929     -185077.88     -185013.89     -185077.88      0              1294.1001      32.953235      32.953235      32.953235      35784.435    
     33800   292.39879     -185079.34     -185014.06     -185079.34      0             -1554.7219      32.986113      32.986113      32.986113      35891.65     
     33900   293.35821     -185081.51     -185016.03     -185081.51      0              1006.063       32.956916      32.956916      32.956916      35796.428    
     34000   299.98806     -185080.55     -185013.58     -185080.55      0              82.297329      32.968156      32.968156      32.968156      35833.065    
     34100   286.02246     -185077.8      -185013.95     -185077.8       0             -1057.3947      32.981111      32.981111      32.981111      35875.325    
     34200   296.42303     -185079.63     -185013.46     -185079.63      0              1509.0485      32.952045      32.952045      32.952045      35780.56     
     34300   301.06283     -185079.78     -185012.57     -185079.78      0             -1216.9917      32.981654      32.981654      32.981654      35877.096    
     34400   296.30759     -185078.86     -185012.72     -185078.86      0              180.01003      32.968915      32.968915      32.968915      35835.542    
     34500   295.32865     -185079.87     -185013.94     -185079.87      0              1003.8829      32.957117      32.957117      32.957117      35797.083    
     34600   284.83619     -185081.88     -185018.3      -185081.88      0             -1683.5504      32.984237      32.984237      32.984237      35885.527    
     34700   290.3662      -185079.44     -185014.62     -185079.44      0              1043.1476      32.957572      32.957572      32.957572      35798.566    
     34800   310.5719      -185082.19     -185012.86     -185082.19      0              33.993602      32.969027      32.969027      32.969027      35835.907    
     34900   297.19103     -185078.18     -185011.84     -185078.18      0             -729.12733      32.979113      32.979113      32.979113      35868.806    
     35000   289.42025     -185079.22     -185014.61     -185079.22      0              1281.7769      32.954119      32.954119      32.954119      35787.315    
     35100   296.9311      -185077.65     -185011.37     -185077.65      0             -1196.8094      32.98237       32.98237       32.98237       35879.433    
     35200   307.15873     -185079.2      -185010.64     -185079.2       0              467.29128      32.965371      32.965371      32.965371      35823.984    
     35300   307.47453     -185080.69     -185012.06     -185080.69      0              778.03524      32.961191      32.961191      32.961191      35810.361    
     35400   288.28015     -185079.51     -185015.16     -185079.51      0             -1297.3756      32.982788      32.982788      32.982788      35880.798    
     35500   298.14996     -185077.37     -185010.81     -185077.37      0              1142.2077      32.957374      32.957374      32.957374      35797.921    
     35600   313.5196      -185081.02     -185011.04     -185081.02      0             -394.7576       32.973754      32.973754      32.973754      35851.323    
     35700   314.93111     -185077.82     -185007.52     -185077.82      0             -423.29608      32.976631      32.976631      32.976631      35860.706    
     35800   302.47627     -185077.92     -185010.4      -185077.92      0              1215.6176      32.956449      32.956449      32.956449      35794.908    
     35900   289.46276     -185078.98     -185014.36     -185078.98      0             -1339.4544      32.982639      32.982639      32.982639      35880.31     
     36000   298.95107     -185078.72     -185011.99     -185078.72      0              547.12003      32.96311       32.96311       32.96311       35816.616    
     36100   292.24956     -185079.1      -185013.86     -185079.1       0              420.95678      32.965028      32.965028      32.965028      35822.867    
     36200   286.83041     -185079.48     -185015.45     -185079.48      0             -893.22577      32.977475      32.977475      32.977475      35863.46     
     36300   295.84468     -185080.26     -185014.22     -185080.26      0              842.96936      32.958563      32.958563      32.958563      35801.794    
     36400   298.30935     -185078.76     -185012.17     -185078.76      0             -354.80292      32.975051      32.975051      32.975051      35855.555    
     36500   301.20356     -185078.45     -185011.21     -185078.45      0             -6.5051577      32.970263      32.970263      32.970263      35839.937    
     36600   303.74875     -185079.42     -185011.61     -185079.42      0              400.48091      32.964306      32.964306      32.964306      35820.515    
     36700   296.31879     -185078.49     -185012.34     -185078.49      0             -646.06311      32.975074      32.975074      32.975074      35855.627    
     36800   301.01584     -185078.77     -185011.57     -185078.77      0              181.26119      32.967254      32.967254      32.967254      35830.124    
     36900   299.96047     -185080.82     -185013.85     -185080.82      0              78.384631      32.968256      32.968256      32.968256      35833.392    
     37000   295.7991      -185077.59     -185011.56     -185077.59      0             -484.19458      32.974154      32.974154      32.974154      35852.626    
     37100   298.94172     -185078.07     -185011.34     -185078.07      0              152.24273      32.96673       32.96673       32.96673       35828.416    
     37200   298.6033      -185079.86     -185013.2      -185079.86      0             -152.8965       32.971546      32.971546      32.971546      35844.121    
     37300   297.69733     -185078.25     -185011.79     -185078.25      0              106.79632      32.968311      32.968311      32.968311      35833.572    
     37400   292.6592      -185077.69     -185012.36     -185077.69      0              159.34286      32.968353      32.968353      32.968353      35833.708    
     37500   301.31316     -185078.88     -185011.62     -185078.88      0              16.176038      32.970875      32.970875      32.970875      35841.934    
     37600   310.13233     -185080.59     -185011.35     -185080.59      0              46.316017      32.968673      32.968673      32.968673      35834.75     
     37700   314.65954     -185079.13     -185008.88     -185079.13      0              63.06539       32.971016      32.971016      32.971016      35842.392    
     37800   305.08087     -185076.57     -185008.46     -185076.57      0              162.21292      32.970642      32.970642      32.970642      35841.173    
     37900   305.16583     -185077.85     -185009.73     -185077.85      0              174.68331      32.967781      32.967781      32.967781      35831.844    
     38000   302.6618      -185076.76     -185009.2      -185076.76      0             -233.75922      32.973618      32.973618      32.973618      35850.88     
     38100   303.26262     -185078.28     -185010.58     -185078.28      0              202.14051      32.968225      32.968225      32.968225      35833.29     
     38200   304.8612      -185079.43     -185011.38     -185079.43      0              106.70684      32.968455      32.968455      32.968455      35834.04     
     38300   299.90529     -185078.28     -185011.33     -185078.28      0             -319.75859      32.972982      32.972982      32.972982      35848.805    
     38400   311.99051     -185080.69     -185011.05     -185080.69      0              136.53997      32.967467      32.967467      32.967467      35830.819    
     38500   311.20374     -185080.31     -185010.84     -185080.31      0             -170.45174      32.970977      32.970977      32.970977      35842.264    
     38600   300.13312     -185078.53     -185011.53     -185078.53      0             -79.833797      32.970514      32.970514      32.970514      35840.757    
     38700   302.19382     -185078.16     -185010.7      -185078.16      0              173.57058      32.967242      32.967242      32.967242      35830.086    
     38800   293.13513     -185079.25     -185013.81     -185079.25      0             -259.30038      32.970777      32.970777      32.970777      35841.613    
     38900   299.11091     -185078.93     -185012.16     -185078.93      0              100.70643      32.96754       32.96754       32.96754       35831.058    
     39000   300.81258     -185080.27     -185013.12     -185080.27      0              5.5373376      32.968291      32.968291      32.968291      35833.506    
     39100   304.43001     -185079.28     -185011.32     -185079.28      0             -20.735389      32.97014       32.97014       32.97014       35839.536    
     39200   295.63278     -185078.4      -185012.41     -185078.4       0              54.526849      32.968904      32.968904      32.968904      35835.504    
     39300   296.52071     -185076.48     -185010.28     -185076.48      0             -205.34098      32.97082       32.97082       32.97082       35841.754    
     39400   312.59062     -185078.18     -185008.4      -185078.18      0             -97.167859      32.971397      32.971397      32.971397      35843.636    
     39500   312.33248     -185078.95     -185009.23     -185078.95      0              527.62533      32.965722      32.965722      32.965722      35825.13     
     39600   297.33813     -185076.08     -185009.71     -185076.08      0             -230.73251      32.973449      32.973449      32.973449      35850.326    
     39700   298.89414     -185078.84     -185012.12     -185078.84      0              205.93045      32.967691      32.967691      32.967691      35831.549    
     39800   299.53047     -185078.97     -185012.1      -185078.97      0              164.59948      32.968071      32.968071      32.968071      35832.787    
     39900   291.58081     -185078.16     -185013.07     -185078.16      0             -154.22124      32.972318      32.972318      32.972318      35846.638    
     40000   300.46043     -185079.67     -185012.6      -185079.67      0              534.46874      32.9648        32.9648        32.9648        35822.124    
     40100   302.15249     -185078.13     -185010.68     -185078.13      0             -292.56181      32.972625      32.972625      32.972625      35847.641    
     40200   288.06954     -185075.1      -185010.79     -185075.1       0              118.21674      32.969072      32.969072      32.969072      35836.054    
     40300   302.71121     -185078.02     -185010.44     -185078.02      0              97.260035      32.968847      32.968847      32.968847      35835.318    
     40400   306.9984      -185080.37     -185011.84     -185080.37      0             -361.16516      32.973186      32.973186      32.973186      35849.471    
     40500   296.79768     -185079.68     -185013.43     -185079.68      0              344.19924      32.963601      32.963601      32.963601      35818.217    
     40600   301.23321     -185078.54     -185011.3      -185078.54      0             -636.69202      32.976251      32.976251      32.976251      35859.469    
     40700   305.10601     -185079.93     -185011.82     -185079.93      0              213.38665      32.967463      32.967463      32.967463      35830.806    
     40800   304.48115     -185079.3      -185011.33     -185079.3       0              353.68554      32.966216      32.966216      32.966216      35826.742    
     40900   310.73637     -185079.92     -185010.56     -185079.92      0             -855.90067      32.977258      32.977258      32.977258      35862.751    
     41000   287.57125     -185078.21     -185014.01     -185078.21      0              558.46382      32.960596      32.960596      32.960596      35808.422    
     41100   290.63707     -185079.1      -185014.22     -185079.1       0             -659.85802      32.974529      32.974529      32.974529      35853.851    
     41200   307.63689     -185082.39     -185013.72     -185082.39      0             -156.98286      32.969756      32.969756      32.969756      35838.282    
     41300   295.07947     -185080.51     -185014.64     -185080.51      0              1054.8343      32.958928      32.958928      32.958928      35802.983    
     41400   303.08981     -185079.3      -185011.64     -185079.3       0             -1046.753       32.981069      32.981069      32.981069      35875.189    
     41500   299.591       -185076.16     -185009.28     -185076.16      0              632.84526      32.963423      32.963423      32.963423      35817.636    
     41600   304.08665     -185079.31     -185011.43     -185079.31      0              210.56503      32.966778      32.966778      32.966778      35828.572    
     41700   308.02162     -185078.07     -185009.31     -185078.07      0             -830.18746      32.980723      32.980723      32.980723      35874.059    
     41800   301.1744      -185076.72     -185009.49     -185076.72      0              1366.7717      32.956371      32.956371      32.956371      35794.654    
     41900   299.42633     -185078.22     -185011.37     -185078.22      0             -851.41258      32.979423      32.979423      32.979423      35869.816    
     42000   301.88307     -185079.25     -185011.86     -185079.25      0             -110.34543      32.971301      32.971301      32.971301      35843.322    
     42100   301.55571     -185077.88     -185010.57     -185077.88      0              989.74783      32.95832       32.95832       32.95832       35801.002    
     42200   299.87857     -185076.6      -185009.66     -185076.6       0             -1322.9767      32.984353      32.984353      32.984353      35885.907    
     42300   307.73517     -185078.32     -185009.63     -185078.32      0              731.58017      32.962482      32.962482      32.962482      35814.569    
     42400   297.50191     -185076.81     -185010.4      -185076.81      0              2.4865523      32.969691      32.969691      32.969691      35838.07     
     42500   298.95177     -185077.77     -185011.03     -185077.77      0             -734.0747       32.97941       32.97941       32.97941       35869.776    
     42600   304.50544     -185080.66     -185012.69     -185080.66      0              1343.1609      32.956054      32.956054      32.956054      35793.621    
     42700   310.32598     -185080.8      -185011.53     -185080.8       0             -922.71682      32.979554      32.979554      32.979554      35870.244    
     42800   301.33984     -185076.43     -185009.17     -185076.43      0              230.30567      32.969059      32.969059      32.969059      35836.009    
     42900   308.58758     -185077.99     -185009.1      -185077.99      0              619.61169      32.963733      32.963733      32.963733      35818.646    
     43000   308.96861     -185078.49     -185009.52     -185078.49      0             -1123.1645      32.982727      32.982727      32.982727      35880.599    
     43100   298.07782     -185077.1      -185010.56     -185077.1       0              1100.3826      32.958876      32.958876      32.958876      35802.814    
     43200   302.34063     -185080.66     -185013.17     -185080.66      0             -496.48189      32.974244      32.974244      32.974244      35852.92     
     43300   304.40029     -185078.82     -185010.87     -185078.82      0             -316.91343      32.973899      32.973899      32.973899      35851.795    
     43400   306.64593     -185078.14     -185009.69     -185078.14      0              1115.2056      32.958495      32.958495      32.958495      35801.573    
     43500   307.65531     -185078.31     -185009.63     -185078.31      0             -1365.197       32.985196      32.985196      32.985196      35888.658    
     43600   304.90984     -185078.39     -185010.33     -185078.39      0              999.97503      32.960645      32.960645      32.960645      35808.582    
     43700   311.01886     -185079.72     -185010.29     -185079.72      0              104.03778      32.970578      32.970578      32.970578      35840.963    
     43800   295.4591      -185077.26     -185011.3      -185077.26      0             -897.48901      32.980662      32.980662      32.980662      35873.858    
     43900   288.84595     -185079.83     -185015.35     -185079.83      0              1574.484       32.950759      32.950759      32.950759      35776.371    
     44000   294.47365     -185078.21     -185012.47     -185078.21      0             -1671.1876      32.987542      32.987542      32.987542      35896.314    
     44100   297.72106     -185078.3      -185011.84     -185078.3       0              494.45815      32.964461      32.964461      32.964461      35821.018    
     44200   301.25848     -185078.37     -185011.12     -185078.37      0              1174.8523      32.958399      32.958399      32.958399      35801.262    
     44300   290.25074     -185078.15     -185013.36     -185078.15      0             -2126.7554      32.992189      32.992189      32.992189      35911.487    
     44400   296.19962     -185078.14     -185012.02     -185078.14      0              1938.7723      32.948397      32.948397      32.948397      35768.676    
     44500   304.74917     -185079.3      -185011.27     -185079.3       0             -823.43966      32.9791        32.9791        32.9791        35868.764    
     44600   312.83524     -185079.05     -185009.21     -185079.05      0             -1096.6269      32.983423      32.983423      32.983423      35882.872    
     44700   303.71576     -185078.13     -185010.33     -185078.13      0              2430.3928      32.945021      32.945021      32.945021      35757.682    
     44800   291.98212     -185077.33     -185012.15     -185077.33      0             -2395.9671      32.996009      32.996009      32.996009      35923.962    
     44900   293.36755     -185080.31     -185014.82     -185080.31      0              817.49671      32.95945       32.95945       32.95945       35804.686    
     45000   306.71723     -185082.32     -185013.85     -185082.32      0              1157.665       32.95724       32.95724       32.95724       35797.483    
     45100   295.43706     -185080.54     -185014.58     -185080.54      0             -2503.2574      32.996805      32.996805      32.996805      35926.563    
     45200   289.86398     -185078.32     -185013.61     -185078.32      0              2524.8782      32.941924      32.941924      32.941924      35747.598    
     45300   294.31636     -185078.52     -185012.82     -185078.52      0             -1078.3327      32.981503      32.981503      32.981503      35876.605    
     45400   296.74103     -185079.83     -185013.59     -185079.83      0             -646.39712      32.977672      32.977672      32.977672      35864.103    
[...]
     88700   294.61662     -185080.99     -185015.22     -185080.99      0             -1409.1757      32.983687      32.983687      32.983687      35883.731    
     88800   298.12933     -185079.63     -185013.07     -185079.63      0              1013.0497      32.960257      32.960257      32.960257      35807.316    
     88900   295.61021     -185080.68     -185014.69     -185080.68      0              501.52071      32.965075      32.965075      32.965075      35823.021    
     89000   295.28848     -185080.44     -185014.53     -185080.44      0             -1457.1358      32.984407      32.984407      32.984407      35886.081    
     89100   296.03648     -185078.55     -185012.46     -185078.55      0              1862.1799      32.949269      32.949269      32.949269      35771.518    
     89200   294.42096     -185080.3      -185014.57     -185080.3       0             -1290.4812      32.985475      32.985475      32.985475      35889.569    
     89300   294.7413      -185081.12     -185015.32     -185081.12      0              199.41059      32.96681       32.96681       32.96681       35828.676    
     89400   292.89964     -185079.72     -185014.34     -185079.72      0              1525.6986      32.952114      32.952114      32.952114      35780.785    
     89500   292.3548      -185079.19     -185013.93     -185079.19      0             -2979.1783      33.001025      33.001025      33.001025      35940.349    
     89600   282.94596     -185082        -185018.84     -185082         0              2690.5121      32.938655      32.938655      32.938655      35736.96     
     89700   291.54306     -185080.28     -185015.2      -185080.28      0             -975.66516      32.979271      32.979271      32.979271      35869.322    
     89800   289.63756     -185079        -185014.35     -185079         0             -1340.0281      32.985093      32.985093      32.985093      35888.321    
     89900   298.34315     -185080.23     -185013.63     -185080.23      0              3200.5612      32.936016      32.936016      32.936016      35728.37     
     90000   301.30261     -185081.5      -185014.24     -185081.5       0             -2990.4274      33.001785      33.001785      33.001785      35942.832    
     90100   296.58276     -185079.1      -185012.89     -185079.1       0              1306.4445      32.956223      32.956223      32.956223      35794.17     
     90200   297.93802     -185080.28     -185013.77     -185080.28      0              908.86608      32.959932      32.959932      32.959932      35806.256    
     90300   301.98727     -185077.42     -185010        -185077.42      0             -2554.6957      32.998773      32.998773      32.998773      35932.992    
     90400   303.95074     -185078.07     -185010.21     -185078.07      0              2588.3502      32.942453      32.942453      32.942453      35749.321    
     90500   295.54342     -185076.39     -185010.42     -185076.39      0             -1500.7405      32.987913      32.987913      32.987913      35897.528    
     90600   301.96529     -185076.21     -185008.8      -185076.21      0             -387.67176      32.976615      32.976615      32.976615      35860.656    
     90700   305.39157     -185077.52     -185009.35     -185077.52      0              1834.8502      32.95124       32.95124       32.95124       35777.937    
     90800   303.57766     -185077.97     -185010.2      -185077.97      0             -2135.9069      32.994438      32.994438      32.994438      35918.831    
     90900   304.33752     -185078.22     -185010.28     -185078.22      0              1132.0672      32.958702      32.958702      32.958702      35802.248    
     91000   298.24972     -185078.77     -185012.19     -185078.77      0              223.88748      32.967882      32.967882      32.967882      35832.174    
     91100   302.564       -185079.66     -185012.12     -185079.66      0             -1341.2115      32.98569       32.98569       32.98569       35890.271    
     91200   293.61049     -185078.35     -185012.81     -185078.35      0              1534.5432      32.953267      32.953267      32.953267      35784.54     
     91300   288.50938     -185079.33     -185014.92     -185079.33      0             -1183.7565      32.980803      32.980803      32.980803      35874.321    
     91400   285.77607     -185078.33     -185014.54     -185078.33      0              219.14143      32.967974      32.967974      32.967974      35832.474    
     91500   299.83881     -185079.57     -185012.64     -185079.57      0              990.11073      32.960651      32.960651      32.960651      35808.599    
     91600   300.4804      -185079.53     -185012.46     -185079.53      0             -1483.377       32.984984      32.984984      32.984984      35887.964    
     91700   297.50285     -185078.5      -185012.09     -185078.5       0              1200.367       32.956863      32.956863      32.956863      35796.254    
     91800   302.33311     -185079.52     -185012.03     -185079.52      0             -376.99868      32.975414      32.975414      32.975414      35856.737    
     91900   303.03515     -185080.02     -185012.38     -185080.02      0             -372.09843      32.975562      32.975562      32.975562      35857.22     
     92000   304.7071      -185080.45     -185012.43     -185080.45      0              1013.3839      32.957208      32.957208      32.957208      35797.379    
     92100   314.17011     -185075.08     -185004.95     -185075.08      0             -1414.6524      32.988431      32.988431      32.988431      35899.219    
     92200   309.60585     -185077.04     -185007.92     -185077.04      0              798.03398      32.963726      32.963726      32.963726      35818.622    
     92300   302.97061     -185076.61     -185008.98     -185076.61      0              176.70676      32.969242      32.969242      32.969242      35836.609    
     92400   297.79754     -185077.86     -185011.38     -185077.86      0             -1074.6542      32.981631      32.981631      32.981631      35877.022    
     92500   296.52557     -185077.86     -185011.67     -185077.86      0              1256.7052      32.956931      32.956931      32.956931      35796.476    
     92600   294.60001     -185079.09     -185013.33     -185079.09      0             -837.13325      32.977867      32.977867      32.977867      35864.74     
     92700   295.84112     -185079.5      -185013.46     -185079.5       0             -219.36872      32.970461      32.970461      32.970461      35840.582    
     92800   294.61568     -185077.29     -185011.52     -185077.29      0              830.58855      32.96252       32.96252       32.96252       35814.692    
     92900   310.34646     -185077.36     -185008.08     -185077.36      0             -1029.5135      32.982707      32.982707      32.982707      35880.532    
     93000   308.18678     -185080.2      -185011.41     -185080.2       0              844.7966       32.960995      32.960995      32.960995      35809.721    
     93100   298.61139     -185077.87     -185011.21     -185077.87      0              7.7063061      32.973014      32.973014      32.973014      35848.91     
     93200   307.74927     -185077.74     -185009.04     -185077.74      0             -386.45681      32.976267      32.976267      32.976267      35859.521    
     93300   299.48676     -185079.34     -185012.49     -185079.34      0              1056.2507      32.958068      32.958068      32.958068      35800.181    
     93400   294.37158     -185079.22     -185013.51     -185079.22      0             -1121.6222      32.98244       32.98244       32.98244       35879.66     
     93500   298.19267     -185079.5      -185012.93     -185079.5       0              493.98739      32.963614      32.963614      32.963614      35818.259    
     93600   297.70709     -185081.63     -185015.17     -185081.63      0              161.91407      32.967261      32.967261      32.967261      35830.148    
     93700   290.13627     -185079.74     -185014.97     -185079.74      0             -988.41669      32.980025      32.980025      32.980025      35871.781    
     93800   293.90818     -185078.43     -185012.82     -185078.43      0              1177.344       32.957241      32.957241      32.957241      35797.486    
     93900   296.38625     -185079.25     -185013.09     -185079.25      0             -818.26071      32.979366      32.979366      32.979366      35869.63     
     94000   301.83907     -185079.94     -185012.56     -185079.94      0             -193.73615      32.971598      32.971598      32.971598      35844.291    
     94100   305.2976      -185078.46     -185010.31     -185078.46      0              1056.2614      32.958511      32.958511      32.958511      35801.627    
     94200   303.56945     -185076.87     -185009.1      -185076.87      0             -1546.9426      32.989278      32.989278      32.989278      35901.984    
     94300   301.87475     -185079.79     -185012.4      -185079.79      0              1424.4238      32.955899      32.955899      32.955899      35793.115    
     94400   301.87263     -185080.2      -185012.81     -185080.2       0             -178.7095       32.971492      32.971492      32.971492      35843.944    
     94500   291.63773     -185077.07     -185011.97     -185077.07      0             -1504.9691      32.986643      32.986643      32.986643      35893.38     
     94600   297.4074      -185080.62     -185014.23     -185080.62      0              2442.5866      32.942386      32.942386      32.942386      35749.104    
     94700   296.82692     -185079.61     -185013.34     -185079.61      0             -2236.8997      32.994155      32.994155      32.994155      35917.908    
     94800   283.38977     -185078.78     -185015.52     -185078.78      0              752.30291      32.960854      32.960854      32.960854      35809.261    
     94900   292.81903     -185080.35     -185014.99     -185080.35      0              1332.0897      32.955567      32.955567      32.955567      35792.034    
     95000   295.97815     -185078.47     -185012.4      -185078.47      0             -2737.4232      33.000956      33.000956      33.000956      35940.123    
     95100   304.13767     -185078.87     -185010.98     -185078.87      0              2852.1791      32.938682      32.938682      32.938682      35737.046    
     95200   309.28537     -185077.09     -185008.05     -185077.09      0             -1759.2982      32.990914      32.990914      32.990914      35907.326    
     95300   296.91532     -185077.42     -185011.14     -185077.42      0             -621.97223      32.978631      32.978631      32.978631      35867.232    
     95400   309.36932     -185079.38     -185010.32     -185079.38      0              2529.2367      32.943448      32.943448      32.943448      35752.559    
     95500   302.86241     -185078.25     -185010.64     -185078.25      0             -2946.6757      33.004418      33.004418      33.004418      35951.434    
     95600   294.67808     -185079.1      -185013.32     -185079.1       0              1862.9341      32.949395      32.949395      32.949395      35771.925    
     95700   299.97331     -185077.97     -185011.01     -185077.97      0              9.0227503      32.969893      32.969893      32.969893      35838.73     
     95800   294.74289     -185078.26     -185012.47     -185078.26      0             -1883.1094      32.991691      32.991691      32.991691      35909.863    
     95900   314.49251     -185080.15     -185009.94     -185080.15      0              2427.3699      32.94453       32.94453       32.94453       35756.083    
     96000   298.07211     -185078.26     -185011.72     -185078.26      0             -1528.9015      32.988183      32.988183      32.988183      35898.406    
     96100   299.55884     -185079.46     -185012.59     -185079.46      0              143.89413      32.967998      32.967998      32.967998      35832.551    
     96200   304.03315     -185077.66     -185009.79     -185077.66      0              1131.6746      32.959824      32.959824      32.959824      35805.905    
     96300   306.07169     -185078.19     -185009.87     -185078.19      0             -1404.7324      32.987063      32.987063      32.987063      35894.751    
     96400   302.89997     -185077.89     -185010.28     -185077.89      0              1214.3675      32.958369      32.958369      32.958369      35801.164    
     96500   297.63935     -185078        -185011.56     -185078         0             -136.45838      32.97272       32.97272       32.97272       35847.949    
     96600   309.85722     -185081.28     -185012.11     -185081.28      0             -507.99469      32.976836      32.976836      32.976836      35861.377    
     96700   303.31109     -185079.45     -185011.74     -185079.45      0              1553.0463      32.955548      32.955548      32.955548      35791.971    
     96800   296.87994     -185078.46     -185012.19     -185078.46      0             -1008.5937      32.980687      32.980687      32.980687      35873.942    
     96900   303.9006      -185079.72     -185011.88     -185079.72      0              145.47934      32.967041      32.967041      32.967041      35829.43     
     97000   294.12201     -185077.11     -185011.45     -185077.11      0              490.25441      32.966328      32.966328      32.966328      35827.107    
     97100   299.80495     -185080.47     -185013.55     -185080.47      0             -936.38804      32.978822      32.978822      32.978822      35867.856    
     97200   292.97205     -185079.2      -185013.8      -185079.2       0              888.82308      32.959912      32.959912      32.959912      35806.192    
     97300   295.38137     -185076.13     -185010.19     -185076.13      0             -439.60709      32.975242      32.975242      32.975242      35856.175    
     97400   297.01331     -185077.59     -185011.29     -185077.59      0             -614.77364      32.975216      32.975216      32.975216      35856.093    
     97500   304.82831     -185079.04     -185010.99     -185079.04      0              636.88329      32.963013      32.963013      32.963013      35816.298    
     97600   299.34011     -185077.78     -185010.95     -185077.78      0             -911.77514      32.979899      32.979899      32.979899      35871.371    
     97700   296.3748      -185078.73     -185012.57     -185078.73      0              357.59616      32.965229      32.965229      32.965229      35823.523    
     97800   296.45112     -185079.62     -185013.44     -185079.62      0              117.1313       32.968009      32.968009      32.968009      35832.586    
     97900   303.92821     -185080.63     -185012.78     -185080.63      0             -534.03225      32.977339      32.977339      32.977339      35863.018    
     98000   297.45277     -185080.24     -185013.84     -185080.24      0              1196.1789      32.958035      32.958035      32.958035      35800.076    
     98100   292.56997     -185081.18     -185015.86     -185081.18      0             -799.30913      32.97835       32.97835       32.97835       35866.315    
     98200   298.27402     -185081.99     -185015.4      -185081.99      0             -66.181166      32.968277      32.968277      32.968277      35833.462    
     98300   299.23904     -185079.97     -185013.17     -185079.97      0              808.50343      32.961226      32.961226      32.961226      35810.473    
     98400   295.84143     -185079.14     -185013.1      -185079.14      0             -1411.3331      32.984599      32.984599      32.984599      35886.709    
     98500   292.24599     -185079.11     -185013.87     -185079.11      0              1081.8828      32.959746      32.959746      32.959746      35805.65     
     98600   294.36464     -185079.4      -185013.69     -185079.4       0              283.0419       32.967739      32.967739      32.967739      35831.707    
     98700   294.30839     -185078.54     -185012.84     -185078.54      0             -1258.4347      32.983584      32.983584      32.983584      35883.396    
     98800   289.67982     -185078.04     -185013.38     -185078.04      0              1614.5169      32.952091      32.952091      32.952091      35780.709    
     98900   300.50394     -185078.74     -185011.66     -185078.74      0             -1077.8848      32.982519      32.982519      32.982519      35879.919    
     99000   299.81735     -185077.42     -185010.5      -185077.42      0              45.287968      32.971609      32.971609      32.971609      35844.328    
     99100   299.75582     -185077.06     -185010.14     -185077.06      0              1050.1214      32.959547      32.959547      32.959547      35805.002    
     99200   303.06144     -185077.92     -185010.27     -185077.92      0             -1621.3841      32.988759      32.988759      32.988759      35900.289    
     99300   299.09981     -185077.34     -185010.57     -185077.34      0              1408.5498      32.955835      32.955835      32.955835      35792.907    
     99400   306.39534     -185076.96     -185008.56     -185076.96      0             -316.08478      32.975768      32.975768      32.975768      35857.891    
     99500   312.42355     -185077.49     -185007.75     -185077.49      0             -969.89871      32.981834      32.981834      32.981834      35877.685    
     99600   300.17282     -185076.99     -185009.98     -185076.99      0              1704.5884      32.951767      32.951767      32.951767      35779.654    
     99700   306.93491     -185075.71     -185007.2      -185075.71      0             -1859.2245      32.992596      32.992596      32.992596      35912.817    
     99800   310.50376     -185077.1      -185007.79     -185077.1       0              869.54777      32.96131       32.96131       32.96131       35810.749    
     99900   299.14537     -185077.71     -185010.94     -185077.71      0              785.64557      32.961757      32.961757      32.961757      35812.205    
    100000   305.65252     -185080.85     -185012.62     -185080.85      0             -2414.6076      32.994139      32.994139      32.994139      35917.855    
Loop time of 355.426 on 1 procs for 100000 steps with 1728 atoms

Performance: 24.309 ns/day, 0.987 hours/ns, 281.353 timesteps/s, 486.177 katom-step/s
97.4% CPU use with 1 MPI tasks x 1 OpenMP threads

MPI task timing breakdown:
Section |  min time  |  avg time  |  max time  |%varavg| %total
---------------------------------------------------------------
Pair    | 339.54     | 339.54     | 339.54     |   0.0 | 95.53
Neigh   | 5.5909     | 5.5909     | 5.5909     |   0.0 |  1.57
Comm    | 1.3626     | 1.3626     | 1.3626     |   0.0 |  0.38
Output  | 2.2795     | 2.2795     | 2.2795     |   0.0 |  0.64
Modify  | 6.1514     | 6.1514     | 6.1514     |   0.0 |  1.73
Other   |            | 0.4992     |            |       |  0.14

Nlocal:           1728 ave        1728 max        1728 min
Histogram: 1 0 0 0 0 0 0 0 0 0
Nghost:           3645 ave        3645 max        3645 min
Histogram: 1 0 0 0 0 0 0 0 0 0
Neighs:              0 ave           0 max           0 min
Histogram: 1 0 0 0 0 0 0 0 0 0
FullNghs:       172880 ave      172880 max      172880 min
Histogram: 1 0 0 0 0 0 0 0 0 0

Total # of neighbors = 172880
Ave neighs/atom = 100.0463
Neighbor list builds = 1000
Dangerous builds = 0

write_data	data_solid.final
System init for write_data ...
Generated 0 of 0 mixed pair_coeff terms from geometric mixing rule

write_restart   restart_solid.lmp
System init for write_restart ...
Generated 0 of 0 mixed pair_coeff terms from geometric mixing rule
Total wall time: 0:05:58
