
     Program PWSCF v.7.3 starts on  9Mar2025 at 10:48:42 

     This program is part of the open-source Quantum ESPRESSO suite
     for quantum simulation of materials; please cite
         "P. Giannozzi et al., J. Phys.:Condens. Matter 21 395502 (2009);
         "P. Giannozzi et al., J. Phys.:Condens. Matter 29 465901 (2017);
         "P. Giannozzi et al., J. Chem. Phys. 152 154105 (2020);
          URL http://www.quantum-espresso.org", 
     in publications or presentations arising from this work. More details at
     http://www.quantum-espresso.org/quote

     Parallel version (MPI & OpenMP), running on     120 processor cores
     Number of MPI processes:               120
     Threads/MPI process:                     1

     MPI processes distributed on     1 nodes
     589906 MiB available memory on the printing compute node when the environment starts

     Reading input from pw-water-91.in
Warning: card &CELL ignored
Warning: card / ignored
Warning: card &FCP ignored
Warning: card / ignored
Warning: card &RISM ignored
Warning: card / ignored

     Current dimensions of program PWSCF are:
     Max number of different atomic species (ntypx) = 10
     Max number of k-points (npk) =  40000
     Max angular momentum in pseudopotentials (lmaxx) =  4

     IMPORTANT: XC functional enforced from input :
     Exchange-correlation= SCAN
                           (   0   0   0   0   0 263 267)
     Any further DFT definition will be discarded
     Please, verify this is what you really want


     gamma-point specific algorithms are used

     R & G space division:  proc/nbgrp/npool/nimage =     120
     Subspace diagonalization in iterative solution of the eigenvalue problem:
     one sub-group per band group will be used
     ELPA distributed-memory algorithm (size of sub-group: 10* 10 procs)


     Parallelization info
     --------------------
     sticks:   dense  smooth     PW     G-vecs:    dense   smooth      PW
     Min         223     223     55                53054    53054    6618
     Max         226     226     58                53096    53096    6642
     Sum       27001   27001   6747              6368777  6368777  796049

     Using Slab Decomposition



     bravais-lattice index     =            0
     lattice parameter (alat)  =      27.1743  a.u.
     unit-cell volume          =   40863.0649 (a.u.)^3
     number of atoms/cell      =          493
     number of atomic types    =            5
     number of electrons       =      2104.00
     number of Kohn-Sham states=         1052
     kinetic-energy cutoff     =     110.0000  Ry
     charge density cutoff     =     440.0000  Ry
     scf convergence threshold =      1.0E-06
     mixing beta               =       0.5000
     number of iterations used =            8  plain     mixing
     Exchange-correlation= SCAN
                           (   0   0   0   0   0 263 267)

     celldm(1)=  27.174262  celldm(2)=   0.000000  celldm(3)=   0.000000
     celldm(4)=   0.000000  celldm(5)=   0.000000  celldm(6)=   0.000000

     crystal axes: (cart. coord. in units of alat)
               a(1) = (   1.000000   0.000000   0.000000 )  
               a(2) = (   0.263718   1.045271   0.000000 )  
               a(3) = (  -1.114529  -1.155389   1.948179 )  

     reciprocal axes: (cart. coord. in units 2 pi/alat)
               b(1) = (  1.000000 -0.252296  0.422460 )  
               b(2) = ( -0.000000  0.956690  0.567375 )  
               b(3) = (  0.000000  0.000000  0.513300 )  


     PseudoPot. # 1 for K  read from file:
     /scratch/zhouwq/DFT-feldspar-surface/script-dft/K_ONCV_PBE_sr.upf
     MD5 check sum: 1b7a13238029e3acac828725779bbc07
     Pseudo is Norm-conserving, Zval =  9.0
     Generated using ONCVPSP code by D. R. Hamann
     Using radial grid of 2222 points,  6 beta functions with: 
                l(1) =   0
                l(2) =   0
                l(3) =   1
                l(4) =   1
                l(5) =   2
                l(6) =   2

     PseudoPot. # 2 for Al read from file:
     /scratch/zhouwq/DFT-feldspar-surface/script-dft/Al_ONCV_PBE_sr.upf
     MD5 check sum: f1d308f5052db2acb2ab62005e7ebd82
     Pseudo is Norm-conserving, Zval = 11.0
     Generated using ONCVPSP code by D. R. Hamann
     Using radial grid of 1876 points,  4 beta functions with: 
                l(1) =   0
                l(2) =   0
                l(3) =   1
                l(4) =   1

     PseudoPot. # 3 for Si read from file:
     /scratch/zhouwq/DFT-feldspar-surface/script-dft/Si_ONCV_PBE_sr.upf
     MD5 check sum: 8553c464762ac42b85b1eed164b4d029
     Pseudo is Norm-conserving, Zval =  4.0
     Generated using ONCVPSP code by D. R. Hamann
     Using radial grid of 1510 points,  4 beta functions with: 
                l(1) =   0
                l(2) =   0
                l(3) =   1
                l(4) =   1

     PseudoPot. # 4 for O  read from file:
     /scratch/zhouwq/DFT-feldspar-surface/script-dft/O_ONCV_PBE_sr.upf
     MD5 check sum: 503208cc3dd01d9a06cc7045986f7d49
     Pseudo is Norm-conserving, Zval =  6.0
     Generated using ONCVPSP code by D. R. Hamann
     Using radial grid of  936 points,  4 beta functions with: 
                l(1) =   0
                l(2) =   0
                l(3) =   1
                l(4) =   1

     PseudoPot. # 5 for H  read from file:
     /scratch/zhouwq/DFT-feldspar-surface/script-dft/H_ONCV_PBE_sr.upf
     MD5 check sum: 8975ef619c0c80d0ef0fa21f3286b90d
     Pseudo is Norm-conserving, Zval =  1.0
     Generated using ONCVPSP code by D. R. Hamann
     Using radial grid of 1166 points,  2 beta functions with: 
                l(1) =   0
                l(2) =   0

     atomic species   valence    mass     pseudopotential
     K                 9.00    39.09830     K ( 1.00)
     Al               11.00    26.98154     Al( 1.00)
     Si                4.00    28.08500     Si( 1.00)
     O                 6.00    15.99900     O ( 1.00)
     H                 1.00     1.00800     H ( 1.00)

     No symmetry found



   Cartesian axes

     site n.     atom                  positions (alat units)
         1        K      tau(   1) = (  -0.9343692  -0.9032957   2.7513299  )
         2        Al     tau(   2) = (  -1.1870254  -1.6592062   2.8054837  )
         3        Si     tau(   3) = (  -1.0639750  -0.8444230   2.9692087  )
         4        Si     tau(   4) = (  -1.4635157  -1.6570859   2.8207519  )
         5        Si     tau(   5) = (  -1.2007032  -0.8181628   2.8095193  )
         6        Si     tau(   6) = (  -1.3267114  -1.6802166   2.9805916  )
         7        Si     tau(   7) = (  -0.9668604  -0.7046593   2.6249877  )
         8        Si     tau(   8) = (  -1.3239092  -1.5254520   2.7070116  )
         9        O      tau(   9) = (  -1.5708647  -1.6296378   2.8150465  )
        10        O      tau(  10) = (  -1.2035631  -0.8903205   2.7214727  )
        11        O      tau(  11) = (  -1.2907172  -0.8215122   2.8737312  )
        12        O      tau(  12) = (  -1.2350657  -1.6675062   2.9166969  )
        13        O      tau(  13) = (  -0.9038422  -0.6174532   2.5824952  )
        14        O      tau(  14) = (  -1.4072231  -1.5774118   2.7691585  )
        15        O      tau(  15) = (  -1.0746187  -0.5094921   2.5980082  )
        16        O      tau(  16) = (  -0.9557098  -0.7073245   2.7344086  )
        17        O      tau(  17) = (  -1.3356481  -1.7887440   3.0209023  )
        18        O      tau(  18) = (  -1.1848193  -0.7099575   2.7688691  )
        19        O      tau(  19) = (  -1.0816549  -0.6960051   2.6077269  )
        20        O      tau(  20) = (  -1.2276140  -1.5568313   2.7518253  )
        21        O      tau(  21) = (  -1.0978459  -0.8414933   2.8599938  )
        22        O      tau(  22) = (  -1.4299518  -1.6636854   2.9310300  )
        23        Al     tau(  23) = (  -1.0582873  -1.1347689   2.7930766  )
        24        Si     tau(  24) = (  -1.1966004  -0.9986582   2.6979109  )
        25        Si     tau(  25) = (  -1.0996271  -1.2342960   2.6191821  )
        26        O      tau(  26) = (  -1.4392055  -1.1179100   2.8060738  )
        27        O      tau(  27) = (  -0.9220469  -0.8020381   2.5846270  )
        28        O      tau(  28) = (  -1.0700886  -1.3352824   2.5797844  )
        29        O      tau(  29) = (  -1.2846964  -1.0567424   2.7479123  )
        30        O      tau(  30) = (  -1.0477186  -1.1499764   2.5596736  )
        31        O      tau(  31) = (  -1.0801720  -1.2396520   2.7248124  )
        32        O      tau(  32) = (  -1.2052095  -1.0163675   2.5873990  )
        33        O      tau(  33) = (  -1.1006728  -1.0377893   2.7334735  )
        34        O      tau(  34) = (  -1.2104807  -1.2070360   2.6090349  )
        35        O      tau(  35) = (  -1.8441792  -1.9380920   3.6537098  )
        36        Al     tau(  36) = (  -1.6098179  -1.1052752   3.4488059  )
        37        Si     tau(  37) = (  -1.4750486  -1.2430559   3.5379768  )
        38        Si     tau(  38) = (  -1.8379459  -2.0524960   3.6376679  )
        39        O      tau(  39) = (  -1.2246361  -1.1397751   3.4212364  )
        40        O      tau(  40) = (  -1.7017858  -1.4153941   3.6508321  )
        41        O      tau(  41) = (  -1.3785310  -1.1854055   3.5058207  )
        42        O      tau(  42) = (  -1.9007156  -2.1160422   3.7038949  )
        43        O      tau(  43) = (  -1.8634755  -2.0680851   3.5314866  )
        44        O      tau(  44) = (  -1.4833308  -1.2421709   3.6509044  )
        45        O      tau(  45) = (  -1.5679430  -1.2141053   3.4870904  )
        46        O      tau(  46) = (  -1.7288069  -2.0882150   3.6518284  )
        47        K      tau(  47) = (  -1.7254748  -1.3202264   3.4946215  )
        48        K      tau(  48) = (  -1.3426403  -1.6844887   3.2248655  )
        49        K      tau(  49) = (  -1.8565016  -1.8551623   3.4898624  )
        50        Al     tau(  50) = (  -1.7450584  -1.6265106   3.4562925  )
        51        Si     tau(  51) = (  -1.6000317  -1.3914743   3.2744272  )
        52        Si     tau(  52) = (  -1.4706939  -1.6267568   3.4406848  )
        53        Si     tau(  53) = (  -1.4621084  -1.4228879   3.4311665  )
        54        Si     tau(  54) = (  -1.6097420  -1.6035732   3.2792809  )
        55        Si     tau(  55) = (  -1.6880381  -1.5240780   3.6323800  )
        56        Si     tau(  56) = (  -1.6034118  -1.7637858   3.5455135  )
        57        O      tau(  57) = (  -1.3663302  -1.6529931   3.4222049  )
        58        O      tau(  58) = (  -1.4415574  -1.3518340   3.5186175  )
        59        O      tau(  59) = (  -1.5946541  -1.8699370   3.5169588  )
        60        O      tau(  60) = (  -1.6171602  -1.6760411   3.1988990  )
        61        O      tau(  61) = (  -1.3715181  -1.4357981   3.3717916  )
        62        O      tau(  62) = (  -1.6970068  -1.5985295   3.3511465  )
        63        O      tau(  63) = (  -1.7446604  -1.5739597   3.7181333  )
        64        O      tau(  64) = (  -1.5131786  -1.7072613   3.5099119  )
        65        O      tau(  65) = (  -1.6000534  -1.7582076   3.6578789  )
        66        O      tau(  66) = (  -1.7219446  -1.5326605   3.5285365  )
        67        O      tau(  67) = (  -1.5839815  -1.5006838   3.2376678  )
        68        O      tau(  68) = (  -1.4987622  -1.5223543   3.4783514  )
        69        O      tau(  69) = (  -1.5769777  -1.5561650   3.6459060  )
        70        O      tau(  70) = (  -1.6983097  -1.7262797   3.5044459  )
        71        O      tau(  71) = (  -1.5488664  -1.3843947   3.3715411  )
        72        O      tau(  72) = (  -1.5141685  -1.6428690   3.3341862  )
        73        K      tau(  73) = (  -1.2006631  -1.1626769   3.2271142  )
        74        Al     tau(  74) = (  -1.3446890  -0.8398794   2.9793170  )
        75        Al     tau(  75) = (  -1.4511204  -1.9183005   3.2645360  )
        76        Si     tau(  76) = (  -1.3321116  -1.1075905   3.4370500  )
        77        Si     tau(  77) = (  -1.7355004  -1.9205550   3.2781732  )
        78        Si     tau(  78) = (  -1.4674128  -1.0755999   3.2727796  )
        79        Si     tau(  79) = (  -1.5912849  -1.9461988   3.4350629  )
        80        Si     tau(  80) = (  -1.2105261  -0.9785517   3.0750338  )
        81        Si     tau(  81) = (  -1.5992622  -1.7862695   3.1733222  )
        82        O      tau(  82) = (  -0.9577146  -0.8770106   2.9556995  )
        83        O      tau(  83) = (  -1.8415243  -1.8951430   3.2832329  )
        84        O      tau(  84) = (  -1.4799654  -1.1510537   3.1898817  )
        85        O      tau(  85) = (  -1.5539204  -1.0745679   3.3421069  )
        86        O      tau(  86) = (  -1.5020356  -1.9411617   3.3724762  )
        87        O      tau(  87) = (  -1.1223308  -0.9179257   3.0347232  )
        88        O      tau(  88) = (  -1.6893505  -1.8348668   3.2221325  )
        89        O      tau(  89) = (  -1.6093100  -1.7965128   3.0652539  )
        90        O      tau(  90) = (  -1.2082890  -0.9664600   3.1904495  )
        91        O      tau(  91) = (  -1.6040030  -2.0487819   3.4892167  )
        92        O      tau(  92) = (  -1.4545663  -0.9709760   3.2272812  )
        93        O      tau(  93) = (  -1.3015735  -0.9471438   3.0187314  )
        94        O      tau(  94) = (  -1.5037349  -1.8219847   3.2154419  )
        95        O      tau(  95) = (  -1.3710573  -1.1022472   3.3296998  )
        96        O      tau(  96) = (  -1.6871294  -1.9355667   3.3813655  )
        97        K      tau(  97) = (  -1.4591508  -1.0785416   3.0271420  )
        98        K      tau(  98) = (  -1.0798091  -1.4410372   2.7522762  )
        99        K      tau(  99) = (  -1.6102162  -1.5903939   3.0249211  )
       100        Al     tau( 100) = (  -1.3205025  -1.4009711   3.2664897  )
       101        Al     tau( 101) = (  -1.4691526  -1.3618497   2.9837421  )
       102        Si     tau( 102) = (  -1.3305279  -1.1430235   2.8009306  )
       103        Si     tau( 103) = (  -1.1928036  -1.3678877   2.9636258  )
       104        Si     tau( 104) = (  -1.1989719  -1.1602274   2.9663198  )
       105        Si     tau( 105) = (  -1.3401183  -1.3410719   2.8057843  )
       106        Si     tau( 106) = (  -1.4616724  -1.2630015   3.1753929  )
       107        Si     tau( 107) = (  -1.3313414  -1.4921135   3.0790971  )
       108        O      tau( 108) = (  -1.7083642  -1.3748224   3.2869679  )
       109        O      tau( 109) = (  -1.0848604  -1.3965904   2.9476674  )
       110        O      tau( 110) = (  -1.2044067  -1.0905985   3.0558192  )
       111        O      tau( 111) = (  -1.3205569  -1.6053028   3.0645637  )
       112        O      tau( 112) = (  -1.3401140  -1.4172001   2.7194800  )
       113        O      tau( 113) = (  -1.1094528  -1.1465779   2.9030207  )
       114        O      tau( 114) = (  -1.4293185  -1.3465814   2.8712487  )
       115        O      tau( 115) = (  -1.5591816  -1.3137185   3.2015597  )
       116        O      tau( 116) = (  -1.2420765  -1.4421941   3.0344504  )
       117        O      tau( 117) = (  -1.3272067  -1.4915160   3.1900543  )
       118        O      tau( 118) = (  -1.4439278  -1.2746487   3.0635618  )
       119        O      tau( 119) = (  -1.3198434  -1.2441102   2.7551929  )
       120        O      tau( 120) = (  -1.2025228  -1.2639928   3.0122635  )
       121        O      tau( 121) = (  -1.3731935  -1.2961333   3.2356139  )
       122        O      tau( 122) = (  -1.4234298  -1.4553964   3.0349959  )
       123        O      tau( 123) = (  -1.2937587  -1.1543830   2.9086537  )
       124        O      tau( 124) = (  -1.2466807  -1.3740377   2.8650591  )
       125        H      tau( 125) = (  -1.6720164  -1.3910666   3.7110586  )
       126        H      tau( 126) = (  -1.9425377  -2.0748184   3.7417675  )
       127        H      tau( 127) = (  -1.4489959  -1.1896340   3.6840791  )
       128        H      tau( 128) = (  -1.6930803  -2.0853261   3.5935278  )
       129        H      tau( 129) = (  -1.8640723  -1.9154792   3.7135690  )
       130        H      tau( 130) = (  -1.8080089  -1.5457251   3.7240558  )
       131        H      tau( 131) = (  -1.6052541  -1.6984058   3.6871350  )
       132        H      tau( 132) = (  -1.5416197  -1.5583136   3.5899598  )
       133        H      tau( 133) = (  -0.9386543  -0.5608947   2.5716577  )
       134        H      tau( 134) = (  -1.1004427  -0.5698901   2.5818216  )
       135        H      tau( 135) = (  -1.1172403  -0.7153454   2.6602665  )
       136        H      tau( 136) = (  -0.9003471  -0.8116521   2.5210106  )
       137        H      tau( 137) = (  -1.0599348  -1.3433576   2.5127837  )
       138        H      tau( 138) = (  -1.0889619  -1.0974748   2.5564786  )
       139        H      tau( 139) = (  -1.2242047  -1.0811109   2.5761831  )
       140        H      tau( 140) = (  -1.2370741  -1.2302510   2.6654765  )
       141        K      tau( 141) = (  -0.4559944  -0.9371744   2.7609539  )
       142        Al     tau( 142) = (  -0.4223069  -0.6122639   2.7848998  )
       143        Si     tau( 143) = (  -0.5647878  -0.8430754   2.9755709  )
       144        Si     tau( 144) = (  -0.9581922  -1.6585906   2.8139889  )
       145        Si     tau( 145) = (  -0.7020704  -0.8211123   2.8122912  )
       146        Si     tau( 146) = (  -0.8235741  -1.6838318   2.9710678  )
       147        Si     tau( 147) = (  -0.4824789  -0.7217980   2.6179965  )
       148        Si     tau( 148) = (  -0.8291915  -1.5255744   2.6983728  )
       149        O      tau( 149) = (  -1.0689633  -1.6301359   2.8188037  )
       150        O      tau( 150) = (  -0.7088221  -0.9019427   2.7304788  )
       151        O      tau( 151) = (  -0.7906255  -0.8151667   2.8752230  )
       152        O      tau( 152) = (  -0.7357447  -1.6776334   2.9010837  )
       153        O      tau( 153) = (  -0.4182424  -0.6628398   2.5437041  )
       154        O      tau( 154) = (  -0.9052262  -1.5805175   2.7557718  )
       155        O      tau( 155) = (  -0.5754942  -0.4958242   2.5875549  )
       156        O      tau( 156) = (  -0.4469528  -0.7168176   2.7208214  )
       157        O      tau( 157) = (  -0.8334395  -1.7845585   3.0197834  )
       158        O      tau( 158) = (  -0.6891798  -0.7151847   2.7665369  )
       159        O      tau( 159) = (  -0.5956371  -0.6923323   2.5990769  )
       160        O      tau( 160) = (  -0.7267113  -1.5553691   2.7350264  )
       161        O      tau( 161) = (  -0.6097439  -0.8447624   2.8668069  )
       162        O      tau( 162) = (  -0.9198102  -1.6571409   2.9224246  )
       163        Al     tau( 163) = (  -0.5561880  -1.1508550   2.7945684  )
       164        Si     tau( 164) = (  -0.6917563  -1.0042236   2.6904966  )
       165        Si     tau( 165) = (  -0.6044408  -1.2484090   2.6208298  )
       166        O      tau( 166) = (  -0.9396436  -1.1146920   2.8111223  )
       167        O      tau( 167) = (  -0.4762542  -0.8312997   2.5840370  )
       168        O      tau( 168) = (  -0.6089475  -1.3537026   2.5783205  )
       169        O      tau( 169) = (  -0.7870801  -1.0571004   2.7313861  )
       170        O      tau( 170) = (  -0.5354326  -1.1856909   2.5571299  )
       171        O      tau( 171) = (  -0.5718537  -1.2504704   2.7280464  )
       172        O      tau( 172) = (  -0.7018532  -0.9948734   2.5786990  )
       173        O      tau( 173) = (  -0.6006892  -1.0522707   2.7325996  )
       174        O      tau( 174) = (  -0.7045123  -1.1998545   2.6026449  )
       175        O      tau( 175) = (  -1.3168994  -1.9253351   3.6357476  )
       176        Al     tau( 176) = (  -1.1109334  -1.1038279   3.4381911  )
       177        Si     tau( 177) = (  -0.9660210  -1.2321889   3.5429976  )
       178        Si     tau( 178) = (  -1.3219684  -2.0339277   3.6108777  )
       179        O      tau( 179) = (  -1.7232056  -1.1337409   3.4230009  )
       180        O      tau( 180) = (  -1.2284466  -1.4187756   3.6561478  )
       181        O      tau( 181) = (  -0.8691549  -1.1825214   3.5054979  )
       182        O      tau( 182) = (  -1.4022525  -2.0844670   3.6713881  )
       183        O      tau( 183) = (  -1.3473866  -2.0495308   3.5052196  )
       184        O      tau( 184) = (  -0.9736137  -1.2162966   3.6553518  )
       185        O      tau( 185) = (  -1.0516149  -1.1924671   3.4874411  )
       186        O      tau( 186) = (  -1.2206622  -2.0791895   3.6499025  )
       187        K      tau( 187) = (  -1.2440210  -1.3270875   3.4896564  )
       188        K      tau( 188) = (  -0.8427348  -1.6709281   3.2372448  )
       189        K      tau( 189) = (  -1.3664011  -1.8461231   3.4714994  )
       190        Al     tau( 190) = (  -1.2528081  -1.6306340   3.4508988  )
       191        Si     tau( 191) = (  -1.0964718  -1.3910684   3.2872295  )
       192        Si     tau( 192) = (  -0.9688495  -1.6249216   3.4547729  )
       193        Si     tau( 193) = (  -0.9623429  -1.4170250   3.4462677  )
       194        Si     tau( 194) = (  -1.1035645  -1.5987701   3.2855095  )
       195        Si     tau( 195) = (  -1.1939718  -1.5278347   3.6389983  )
       196        Si     tau( 196) = (  -1.1137189  -1.7590355   3.5492596  )
       197        O      tau( 197) = (  -1.8614658  -1.6525028   3.4345564  )
       198        O      tau( 198) = (  -0.9497481  -1.3421877   3.5303901  )
       199        O      tau( 199) = (  -1.0784781  -1.8633610   3.5238498  )
       200        O      tau( 200) = (  -1.0971820  -1.6687160   3.1917242  )
       201        O      tau( 201) = (  -0.8760549  -1.4151874   3.3768569  )
       202        O      tau( 202) = (  -1.1997477  -1.6019020   3.3424687  )
       203        O      tau( 203) = (  -1.2312147  -1.5962923   3.7228980  )
       204        O      tau( 204) = (  -1.0253269  -1.6861547   3.5257701  )
       205        O      tau( 205) = (  -1.1375762  -1.7635926   3.6598772  )
       206        O      tau( 206) = (  -1.2270164  -1.5560122   3.5384054  )
       207        O      tau( 207) = (  -1.0714590  -1.4948245   3.2493346  )
       208        O      tau( 208) = (  -0.9766839  -1.5179250   3.4960743  )
       209        O      tau( 209) = (  -1.0793755  -1.5286684   3.6576730  )
       210        O      tau( 210) = (  -1.2076407  -1.7290429   3.4946104  )
       211        O      tau( 211) = (  -1.0599233  -1.3868506   3.3948246  )
       212        O      tau( 212) = (  -1.0128002  -1.6246510   3.3501334  )
       213        K      tau( 213) = (  -0.7009866  -1.1699006   3.2241196  )
       214        Al     tau( 214) = (  -0.8496430  -0.8359096   2.9817160  )
       215        Al     tau( 215) = (  -0.9536553  -1.9291836   3.2627659  )
       216        Si     tau( 216) = (  -0.8279953  -1.1004983   3.4402172  )
       217        Si     tau( 217) = (  -1.2259519  -1.9128520   3.2768429  )
       218        Si     tau( 218) = (  -0.9696548  -1.0752876   3.2750728  )
       219        Si     tau( 219) = (  -1.0877992  -1.9387431   3.4394713  )
       220        Si     tau( 220) = (  -0.7046817  -0.9727171   3.0806334  )
       221        Si     tau( 221) = (  -1.0897275  -1.7812436   3.1653458  )
       222        O      tau( 222) = (  -1.4575987  -0.8703355   2.9613325  )
       223        O      tau( 223) = (  -1.3372327  -1.8922983   3.2899458  )
       224        O      tau( 224) = (  -0.9620272  -1.1450190   3.1852952  )
       225        O      tau( 225) = (  -1.0663537  -1.0844298   3.3265437  )
       226        O      tau( 226) = (  -1.0013073  -1.9476440   3.3758048  )
       227        O      tau( 227) = (  -0.6185205  -0.9112783   3.0424491  )
       228        O      tau( 228) = (  -1.1832438  -1.8294034   3.2100927  )
       229        O      tau( 229) = (  -1.0905562  -1.7867648   3.0537987  )
       230        O      tau( 230) = (  -0.7044613  -0.9830443   3.1911175  )
       231        O      tau( 231) = (  -1.1056147  -2.0427966   3.4846357  )
       232        O      tau( 232) = (  -0.9440909  -0.9710795   3.2344617  )
       233        O      tau( 233) = (  -0.7954840  -0.9340979   3.0326025  )
       234        O      tau( 234) = (  -0.9989533  -1.8247215   3.2121300  )
       235        O      tau( 235) = (  -0.8834138  -1.1088920   3.3404370  )
       236        O      tau( 236) = (  -1.1802324  -1.9136084   3.3793060  )
       237        K      tau( 237) = (  -0.9466758  -1.0738612   2.9981141  )
       238        K      tau( 238) = (  -0.5681912  -1.4354867   2.7536455  )
       239        K      tau( 239) = (  -1.0672633  -1.5831698   3.0126642  )
       240        Al     tau( 240) = (  -0.8261172  -1.3987526   3.2679536  )
       241        Al     tau( 241) = (  -0.9702138  -1.3675776   2.9804970  )
       242        Si     tau( 242) = (  -0.8293290  -1.1368925   2.7982365  )
       243        Si     tau( 243) = (  -0.6910896  -1.3614062   2.9716579  )
       244        Si     tau( 244) = (  -0.6959445  -1.1551383   2.9625292  )
       245        Si     tau( 245) = (  -0.8293292  -1.3428811   2.8024334  )
       246        Si     tau( 246) = (  -0.9617029  -1.2606845   3.1706894  )
       247        Si     tau( 247) = (  -0.8274248  -1.4975122   3.0777557  )
       248        O      tau( 248) = (  -1.2023153  -1.3642780   3.2829324  )
       249        O      tau( 249) = (  -1.5869055  -1.3880185   2.9667930  )
       250        O      tau( 250) = (  -0.6821695  -1.0791419   3.0416197  )
       251        O      tau( 251) = (  -0.8055954  -1.6090915   3.0551846  )
       252        O      tau( 252) = (  -0.8469065  -1.4172689   2.7238049  )
       253        O      tau( 253) = (  -0.6011477  -1.1613124   2.9083810  )
       254        O      tau( 254) = (  -0.9112366  -1.3434469   2.8765366  )
       255        O      tau( 255) = (  -1.0428557  -1.3104542   3.2319736  )
       256        O      tau( 256) = (  -0.7392693  -1.4417704   3.0381353  )
       257        O      tau( 257) = (  -0.8298996  -1.4866567   3.1877721  )
       258        O      tau( 258) = (  -0.9744175  -1.2762212   3.0588584  )
       259        O      tau( 259) = (  -0.8142779  -1.2383825   2.7557718  )
       260        O      tau( 260) = (  -0.7077853  -1.2569667   3.0185366  )
       261        O      tau( 261) = (  -0.8667109  -1.2962060   3.2149353  )
       262        O      tau( 262) = (  -0.9253295  -1.4701535   3.0298583  )
       263        O      tau( 263) = (  -0.7892811  -1.1255887   2.9025587  )
       264        O      tau( 264) = (  -0.7363407  -1.3655119   2.8619086  )
       265        H      tau( 265) = (  -1.2621073  -1.3947172   3.7107247  )
       266        H      tau( 266) = (  -1.4305283  -2.1435008   3.6599829  )
       267        H      tau( 267) = (  -0.9682552  -1.1505759   3.6745219  )
       268        H      tau( 268) = (  -1.1708047  -2.0554450   3.6098424  )
       269        H      tau( 269) = (  -1.3039005  -1.9088877   3.6998761  )
       270        H      tau( 270) = (  -1.2950176  -1.6178486   3.7232041  )
       271        H      tau( 271) = (  -1.1684838  -1.7098124   3.6874022  )
       272        H      tau( 272) = (  -1.0434135  -1.5120620   3.6006470  )
       273        H      tau( 273) = (  -0.3928108  -0.6044100   2.5482016  )
       274        H      tau( 274) = (  -0.5912141  -0.5615149   2.5777917  )
       275        H      tau( 275) = (  -0.6409438  -0.7174639   2.6431169  )
       276        H      tau( 276) = (  -0.5328340  -0.8520791   2.5494874  )
       277        H      tau( 277) = (  -0.6236044  -1.3542117   2.5154611  )
       278        H      tau( 278) = (  -0.4708886  -1.2001363   2.5520535  )
       279        H      tau( 279) = (  -0.7154677  -1.0553917   2.5531890  )
       280        H      tau( 280) = (  -0.7556641  -1.2278698   2.6370330  )
       281        O      tau( 281) = (  -1.5252313  -2.1727948   4.2774166  )
       282        H      tau( 282) = (  -1.5282391  -2.2401218   4.2929742  )
       283        H      tau( 283) = (  -1.5574366  -2.1615921   4.2181251  )
       284        O      tau( 284) = (  -1.8959566  -1.9395127   4.1726435  )
       285        H      tau( 285) = (  -1.9523284  -1.9428240   4.2145962  )
       286        H      tau( 286) = (  -1.8536436  -1.9874037   4.1919973  )
       287        O      tau( 287) = (  -1.4590979  -1.8417461   4.2973047  )
       288        H      tau( 288) = (  -1.4063906  -1.8271747   4.3380161  )
       289        H      tau( 289) = (  -1.4898148  -1.8931121   4.3309303  )
       290        O      tau( 290) = (  -1.3706922  -1.5751631   4.2193664  )
       291        H      tau( 291) = (  -1.3501911  -1.5538037   4.1590953  )
       292        H      tau( 292) = (  -1.4328297  -1.5462558   4.2409300  )
       293        O      tau( 293) = (  -1.3855486  -1.9249873   4.1064945  )
       294        H      tau( 294) = (  -1.3974072  -1.9050724   4.1677619  )
       295        H      tau( 295) = (  -1.3566252  -1.8760957   4.0696739  )
       296        O      tau( 296) = (  -2.1885506  -1.5978261   4.2781959  )
       297        H      tau( 297) = (  -2.1611504  -1.5407486   4.2575563  )
       298        H      tau( 298) = (  -1.2524753  -1.5824868   4.2772496  )
       299        O      tau( 299) = (  -1.5807409  -1.7023347   4.3379048  )
       300        H      tau( 300) = (  -1.6381453  -1.7378606   4.3359788  )
       301        H      tau( 301) = (  -1.5308445  -1.7464172   4.3316149  )
       302        O      tau( 302) = (  -1.4240907  -1.6450949   3.7351103  )
       303        H      tau( 303) = (  -1.4424391  -1.6710677   3.7954037  )
       304        H      tau( 304) = (  -1.4687171  -1.6706659   3.6903912  )
       305        O      tau( 305) = (  -1.4856092  -1.7372733   3.9083981  )
       306        H      tau( 306) = (  -1.5400637  -1.6963394   3.9109641  )
       307        H      tau( 307) = (  -1.5103118  -1.7955372   3.8860997  )
       308        O      tau( 308) = (  -1.6558440  -1.6318557   3.8866452  )
       309        H      tau( 309) = (  -1.6936414  -1.5991587   3.8401172  )
       310        H      tau( 310) = (  -1.6856581  -1.6924415   3.8929406  )
       311        O      tau( 311) = (  -1.1319235  -1.4389672   4.1834531  )
       312        H      tau( 312) = (  -2.3808163  -2.4217386   4.1984207  )
       313        H      tau( 313) = (  -2.0797831  -1.4539599   4.1389066  )
       314        O      tau( 314) = (  -1.9238247  -1.5159389   3.7700551  )
       315        H      tau( 315) = (  -0.9871661  -1.5186095   3.7399919  )
       316        H      tau( 316) = (  -1.9072905  -1.4516751   3.7554270  )
       317        O      tau( 317) = (  -1.9973621  -2.3098536   4.0998317  )
       318        H      tau( 318) = (  -2.0350754  -2.2534700   4.0972768  )
       319        H      tau( 319) = (  -2.0035076  -2.3317654   4.0350687  )
       320        O      tau( 320) = (  -1.3672586  -2.1874263   4.1698771  )
       321        H      tau( 321) = (  -1.3317302  -2.1338700   4.1874163  )
       322        H      tau( 322) = (  -1.4291569  -2.1858603   4.1985933  )
       323        O      tau( 323) = (  -1.4739548  -1.4896526   3.8234185  )
       324        H      tau( 324) = (  -1.4847367  -1.5188836   3.8834335  )
       325        H      tau( 325) = (  -1.4686768  -1.5385880   3.7731221  )
       326        O      tau( 326) = (  -1.1897142  -1.5221199   3.9077245  )
       327        H      tau( 327) = (  -1.2003617  -1.5754195   3.8696126  )
       328        H      tau( 328) = (  -1.2225746  -1.4741588   3.8741825  )
       329        O      tau( 329) = (  -2.1282122  -2.4043375   4.1875610  )
       330        H      tau( 330) = (  -2.0998698  -2.4618278   4.2099984  )
       331        H      tau( 331) = (  -2.0815697  -2.3717736   4.1531227  )
       332        O      tau( 332) = (  -1.5352176  -1.9973462   4.3736511  )
       333        H      tau( 333) = (  -1.5304863  -2.0602439   4.3571973  )
       334        H      tau( 334) = (  -1.6005580  -1.9898504   4.3946580  )
       335        O      tau( 335) = (  -1.6949825  -1.9918354   3.9391236  )
       336        H      tau( 336) = (  -1.6638980  -1.9662148   3.9927319  )
       337        H      tau( 337) = (  -1.6613896  -2.0500612   3.9345148  )
       338        O      tau( 338) = (  -1.3000169  -1.7645274   4.0109892  )
       339        H      tau( 339) = (  -1.3108435  -1.6999495   4.0258788  )
       340        H      tau( 340) = (  -1.3383268  -1.7742125   3.9582158  )
       341        O      tau( 341) = (  -2.0814265  -1.9162812   4.2269754  )
       342        H      tau( 342) = (  -2.0794165  -1.9186021   4.1559615  )
       343        H      tau( 343) = (  -2.0940521  -1.8487547   4.2347236  )
       344        O      tau( 344) = (  -1.4430160  -2.2750925   4.0161101  )
       345        H      tau( 345) = (  -1.4059288  -2.2374789   4.0582576  )
       346        H      tau( 346) = (  -1.3916384  -2.3122079   3.9891640  )
       347        O      tau( 347) = (  -1.7483216  -1.7889637   4.3088713  )
       348        H      tau( 348) = (  -1.8019071  -1.7581165   4.3255477  )
       349        H      tau( 349) = (  -1.7387026  -1.7928747   4.2433513  )
       350        O      tau( 350) = (  -1.7033699  -1.2922800   3.9223470  )
       351        H      tau( 351) = (  -1.6600371  -1.3405150   3.8962303  )
       352        H      tau( 352) = (  -1.9363881  -2.2821923   3.8928627  )
       353        O      tau( 353) = (  -1.0249973  -1.3173849   3.9590451  )
       354        H      tau( 354) = (  -2.0057330  -1.3697407   4.0002742  )
       355        H      tau( 355) = (  -1.0254756  -1.3401837   3.8948220  )
       356        O      tau( 356) = (  -1.5724879  -1.9569396   4.0925733  )
       357        H      tau( 357) = (  -1.5074671  -1.9580720   4.0838566  )
       358        H      tau( 358) = (  -1.5904452  -2.0213087   4.1075409  )
       359        O      tau( 359) = (  -1.2533961  -2.0322969   3.9981924  )
       360        H      tau( 360) = (  -1.3146693  -2.0035704   4.0030350  )
       361        H      tau( 361) = (  -1.2628665  -2.0853853   3.9615889  )
       362        O      tau( 362) = (  -1.2200933  -1.2062356   3.6477038  )
       363        H      tau( 363) = (  -1.2736370  -1.1871034   3.6915768  )
       364        H      tau( 364) = (  -1.1878757  -1.2501384   3.6856265  )
       365        O      tau( 365) = (  -2.2498308  -2.0441335   4.2122305  )
       366        H      tau( 366) = (  -2.2538151  -2.0193951   4.1503174  )
       367        H      tau( 367) = (  -2.1991426  -2.0186289   4.2418317  )
       368        O      tau( 368) = (  -2.0771572  -1.7201893   4.0002964  )
       369        H      tau( 369) = (  -2.0080354  -1.7416690   4.0018606  )
       370        H      tau( 370) = (  -2.0819622  -1.6742357   3.9517089  )
       371        O      tau( 371) = (  -1.5466263  -1.5241454   4.2756076  )
       372        H      tau( 372) = (  -1.5943357  -1.5243830   4.2299311  )
       373        H      tau( 373) = (  -1.5493971  -1.5850885   4.3025926  )
       374        O      tau( 374) = (  -1.6901810  -1.4781694   4.1717807  )
       375        H      tau( 375) = (  -1.6698113  -1.4178683   4.1479016  )
       376        H      tau( 376) = (  -1.7145607  -1.5160825   4.1218740  )
       377        O      tau( 377) = (  -2.2912552  -2.3324489   4.2734534  )
       378        H      tau( 378) = (  -2.3194448  -2.2744322   4.2393492  )
       379        H      tau( 379) = (  -2.2254809  -2.3315624   4.2563094  )
       380        O      tau( 380) = (  -1.5464708  -2.1387630   3.9109362  )
       381        H      tau( 381) = (  -1.4956950  -2.0965438   3.8978556  )
       382        H      tau( 382) = (  -1.5138266  -2.1881460   3.9429031  )
       383        O      tau( 383) = (  -2.0775245  -1.9727192   4.0271813  )
       384        H      tau( 384) = (  -2.0733811  -2.0299130   4.0618422  )
       385        H      tau( 385) = (  -2.1477214  -1.9825861   4.0170619  )
       386        O      tau( 386) = (  -1.6423865  -2.1391618   4.1169701  )
       387        H      tau( 387) = (  -1.6935018  -2.1132583   4.1483803  )
       388        H      tau( 388) = (  -1.6658329  -2.1930810   4.0842351  )
       389        O      tau( 389) = (  -1.4291912  -2.0265333   3.8535262  )
       390        H      tau( 390) = (  -1.4273223  -2.0597252   3.7925760  )
       391        H      tau( 391) = (  -1.4795123  -1.9823752   3.8396719  )
       392        O      tau( 392) = (  -1.5606900  -1.8988667   3.8055398  )
       393        H      tau( 393) = (  -1.6199651  -1.9136588   3.8234352  )
       394        H      tau( 394) = (  -1.5643467  -1.8741117   3.7394798  )
       395        O      tau( 395) = (  -2.0793310  -1.8397076   3.8283502  )
       396        H      tau( 396) = (  -1.0924406  -1.7956484   3.7774192  )
       397        H      tau( 397) = (  -2.0834877  -1.8107254   3.8896677  )
       398        O      tau( 398) = (  -1.8708110  -2.0106800   3.9639212  )
       399        H      tau( 399) = (  -1.8027462  -2.0064792   3.9738513  )
       400        H      tau( 400) = (  -1.9002365  -2.0009025   4.0223109  )
       401        O      tau( 401) = (  -2.1096107  -2.1551239   4.0942933  )
       402        H      tau( 402) = (  -2.1482047  -2.1687628   4.1488924  )
       403        H      tau( 403) = (  -2.1455360  -2.1617966   4.0401506  )
       404        O      tau( 404) = (  -1.5746864  -2.3637653   4.3015796  )
       405        H      tau( 405) = (  -1.5250940  -2.4026666   4.3393297  )
       406        H      tau( 406) = (  -1.5655925  -2.3829033   4.2325973  )
       407        O      tau( 407) = (  -1.7377526  -1.7961113   3.9294718  )
       408        H      tau( 408) = (  -1.7922453  -1.7878050   3.9706340  )
       409        H      tau( 409) = (  -1.7662434  -1.8414026   3.8935585  )
       410        O      tau( 410) = (  -1.9421690  -1.6462628   4.1928044  )
       411        H      tau( 411) = (  -2.0077136  -1.6668761   4.1910621  )
       412        H      tau( 412) = (  -1.9477802  -1.6072317   4.1394187  )
       413        O      tau( 413) = (  -1.5972045  -1.3509786   3.7848056  )
       414        H      tau( 414) = (  -1.5569701  -1.4021188   3.7937227  )
       415        H      tau( 415) = (  -1.5573717  -1.3027747   3.7612883  )
       416        O      tau( 416) = (  -1.3264417  -1.5653244   4.0403621  )
       417        H      tau( 417) = (  -1.3830057  -1.5416720   4.0192439  )
       418        H      tau( 418) = (  -1.2751896  -1.5406292   4.0009867  )
       419        O      tau( 419) = (  -1.9018870  -1.8773681   3.8272035  )
       420        H      tau( 420) = (  -1.9711251  -1.8665829   3.8304041  )
       421        H      tau( 421) = (  -1.8951924  -1.9103550   3.8838120  )
       422        O      tau( 422) = (  -1.7796256  -2.0816317   4.2249772  )
       423        H      tau( 423) = (  -1.8213847  -2.1366689   4.2321409  )
       424        H      tau( 424) = (  -1.7605279  -2.0534651   4.2834504  )
       425        O      tau( 425) = (  -1.8652765  -1.3085211   3.7996006  )
       426        H      tau( 426) = (  -1.8782224  -1.2685920   3.7466380  )
       427        H      tau( 427) = (  -1.7995099  -1.3033535   3.8151304  )
       428        O      tau( 428) = (  -1.8713067  -2.1865252   3.8779786  )
       429        H      tau( 429) = (  -1.8655169  -2.1566190   3.8145181  )
       430        H      tau( 430) = (  -1.8841848  -2.1347350   3.9199981  )
       431        O      tau( 431) = (  -1.8815877  -1.7781251   4.0769768  )
       432        H      tau( 432) = (  -1.8798756  -1.8440591   4.0991304  )
       433        H      tau( 433) = (  -1.9088406  -1.7400746   4.1276795  )
       434        O      tau( 434) = (  -1.6994675  -2.2815912   3.9600359  )
       435        H      tau( 435) = (  -1.7365676  -2.3171748   4.0032744  )
       436        H      tau( 436) = (  -1.7372416  -2.2345873   3.9324998  )
       437        O      tau( 437) = (  -1.4902322  -1.6985075   4.1198367  )
       438        H      tau( 438) = (  -1.4660117  -1.7429056   4.0764814  )
       439        H      tau( 439) = (  -1.4368836  -1.6793019   4.1559560  )
       440        O      tau( 440) = (  -1.9385828  -1.5767553   3.9633423  )
       441        H      tau( 441) = (  -1.9353330  -1.5431052   3.9038337  )
       442        H      tau( 442) = (  -1.8748281  -1.5925911   3.9843548  )
       443        O      tau( 443) = (  -1.5136744  -1.5466071   4.0073934  )
       444        H      tau( 444) = (  -1.5073436  -1.5932165   4.0535986  )
       445        H      tau( 445) = (  -1.5216854  -1.4858833   4.0356976  )
       446        O      tau( 446) = (  -2.4336421  -2.4385807   4.3977473  )
       447        H      tau( 447) = (  -2.3784650  -2.4062742   4.3776031  )
       448        H      tau( 448) = (  -2.4142322  -2.5009163   4.4062246  )
       449        O      tau( 449) = (  -1.7605792  -2.3884209   4.3212840  )
       450        H      tau( 450) = (  -1.7678610  -2.4531431   4.3126007  )
       451        H      tau( 451) = (  -1.6951186  -2.3780004   4.3179331  )
       452        O      tau( 452) = (  -1.6670678  -1.7987286   4.1413613  )
       453        H      tau( 453) = (  -1.6398165  -1.8607427   4.1309859  )
       454        H      tau( 454) = (  -1.6144673  -1.7600184   4.1247962  )
       455        O      tau( 455) = (  -1.2985731  -1.8846334   3.8178300  )
       456        H      tau( 456) = (  -1.3300430  -1.9431930   3.8457557  )
       457        H      tau( 457) = (  -1.2357933  -1.8970650   3.8348014  )
       458        O      tau( 458) = (  -2.2120752  -2.2016051   3.9347096  )
       459        H      tau( 459) = (  -2.1762489  -2.2220712   3.8801606  )
       460        H      tau( 460) = (  -2.2359232  -2.2602382   3.9588726  )
       461        O      tau( 461) = (  -1.7728875  -1.5988412   4.0517729  )
       462        H      tau( 462) = (  -1.7293613  -1.6043526   4.0013596  )
       463        H      tau( 463) = (  -1.7723633  -1.6641221   4.0646420  )
       464        O      tau( 464) = (  -1.1035489  -1.3264507   3.7759497  )
       465        H      tau( 465) = (  -1.0579774  -1.2854925   3.7573919  )
       466        H      tau( 466) = (  -1.1197020  -1.3612722   3.7209498  )
       467        O      tau( 467) = (  -2.0386093  -2.0295741   3.8048161  )
       468        H      tau( 468) = (  -2.0072901  -2.0122017   3.8624377  )
       469        H      tau( 469) = (  -2.0638363  -1.9739518   3.7757326  )
       470        O      tau( 470) = (  -1.7421186  -2.4264760   4.1060714  )
       471        H      tau( 471) = (  -1.7607695  -2.4400240   4.1701220  )
       472        H      tau( 472) = (  -1.4099082  -1.3853809   4.0976943  )
       473        O      tau( 473) = (  -1.7398192  -1.9615601   4.3780428  )
       474        H      tau( 474) = (  -1.7654658  -1.9581703   4.4402398  )
       475        H      tau( 475) = (  -1.7351030  -1.9008853   4.3491096  )
       476        O      tau( 476) = (  -1.9845308  -1.4433179   4.0752290  )
       477        H      tau( 477) = (  -1.9623109  -1.4944245   4.0336326  )
       478        H      tau( 478) = (  -1.9337608  -1.4141491   4.1062217  )
       479        O      tau( 479) = (  -1.3055194  -1.3945735   3.8251384  )
       480        H      tau( 480) = (  -1.3681764  -1.4240159   3.8101876  )
       481        H      tau( 481) = (  -1.3257964  -1.3509995   3.8719560  )
       482        O      tau( 482) = (  -2.1155027  -1.7336237   4.1825347  )
       483        H      tau( 483) = (  -2.1580994  -1.6876554   4.2185983  )
       484        H      tau( 484) = (  -2.1224747  -1.7372507   4.1151277  )
       485        O      tau( 485) = (  -1.8564701  -2.2438786   4.2385977  )
       486        H      tau( 486) = (  -1.8985742  -2.2719261   4.1945577  )
       487        H      tau( 487) = (  -1.8292685  -2.2922989   4.2797878  )
       488        O      tau( 488) = (  -1.6162624  -2.2064604   3.7555272  )
       489        H      tau( 489) = (  -1.5929408  -2.2033421   3.8187428  )
       490        H      tau( 490) = (  -1.6189567  -2.1397658   3.7372867  )
       491        O      tau( 491) = (  -1.5511311  -2.4194444   4.1026593  )
       492        H      tau( 492) = (  -1.2388351  -1.4163534   4.1197310  )
       493        H      tau( 493) = (  -1.5220670  -2.3727117   4.0571554  )

     number of k points=     1
                       cart. coord. in units 2pi/alat
        k(    1) = (   0.0000000   0.0000000   0.0000000), wk =   2.0000000

     Dense  grid:  3184389 G-vectors     FFT dimensions: ( 192, 200, 480)

     Estimated max dynamical RAM per process >     493.86 MB

     Estimated total dynamical RAM >      57.87 GB

     WARNING: libxc functional with ID  263 depends
      on external parameters: check the user_guide of
      QE if you need to modify them or to check their
      default values.

     Initial potential from superposition of free atoms

     starting charge    2103.6163, renormalised to    2104.0000
     Starting wfcs are 1530 randomized atomic wfcs

     total cpu time spent up to now is       37.0 secs

     Self-consistent Calculation

     iteration #  1     ecut=   110.00 Ry     beta= 0.50
     Davidson diagonalization with overlap
     ethr =  1.00E-02,  avg # of iterations =  2.0

     total cpu time spent up to now is      120.0 secs

     total energy              =  -11162.56321115 Ry
     estimated scf accuracy    <    4098.23944697 Ry

     iteration #  2     ecut=   110.00 Ry     beta= 0.50
     Davidson diagonalization with overlap
     ethr =  1.00E-02,  avg # of iterations =  2.0

     total cpu time spent up to now is      190.7 secs

     total energy              =  -11182.22439943 Ry
     estimated scf accuracy    <     542.18928500 Ry

     iteration #  3     ecut=   110.00 Ry     beta= 0.50
     Davidson diagonalization with overlap
     ethr =  1.00E-02,  avg # of iterations =  1.0

     total cpu time spent up to now is      248.8 secs

     total energy              =  -11183.81299976 Ry
     estimated scf accuracy    <      50.00598480 Ry

     iteration #  4     ecut=   110.00 Ry     beta= 0.50
     Davidson diagonalization with overlap
     ethr =  2.38E-03,  avg # of iterations =  1.0

     total cpu time spent up to now is      306.6 secs

     total energy              =  -11183.95303284 Ry
     estimated scf accuracy    <       0.82225861 Ry

     iteration #  5     ecut=   110.00 Ry     beta= 0.50
     Davidson diagonalization with overlap
     ethr =  3.91E-05,  avg # of iterations =  2.0

     total cpu time spent up to now is      366.6 secs

     total energy              =  -11183.98920107 Ry
     estimated scf accuracy    <       0.03348047 Ry

     iteration #  6     ecut=   110.00 Ry     beta= 0.50
     Davidson diagonalization with overlap
     ethr =  1.59E-06,  avg # of iterations =  4.0

     total cpu time spent up to now is      443.6 secs

     total energy              =  -11183.99565214 Ry
     estimated scf accuracy    <       0.00548466 Ry

     iteration #  7     ecut=   110.00 Ry     beta= 0.50
     Davidson diagonalization with overlap
     ethr =  2.61E-07,  avg # of iterations =  2.0

     total cpu time spent up to now is      514.7 secs

     total energy              =  -11183.99628672 Ry
     estimated scf accuracy    <       0.00205937 Ry

     iteration #  8     ecut=   110.00 Ry     beta= 0.50
     Davidson diagonalization with overlap
     ethr =  9.79E-08,  avg # of iterations =  2.0

     total cpu time spent up to now is      584.2 secs

     total energy              =  -11183.99647831 Ry
     estimated scf accuracy    <       0.00061081 Ry

     iteration #  9     ecut=   110.00 Ry     beta= 0.50
     Davidson diagonalization with overlap
     ethr =  2.90E-08,  avg # of iterations =  2.0

     total cpu time spent up to now is      648.3 secs

     total energy              =  -11183.99651970 Ry
     estimated scf accuracy    <       0.00007766 Ry

     iteration # 10     ecut=   110.00 Ry     beta= 0.50
     Davidson diagonalization with overlap
     ethr =  3.69E-09,  avg # of iterations =  2.0

     total cpu time spent up to now is      712.5 secs

     total energy              =  -11183.99652604 Ry
     estimated scf accuracy    <       0.00000650 Ry

     iteration # 11     ecut=   110.00 Ry     beta= 0.50
     Davidson diagonalization with overlap
     ethr =  3.09E-10,  avg # of iterations =  4.0

     total cpu time spent up to now is      796.7 secs

     total energy              =  -11183.99652776 Ry
     estimated scf accuracy    <       0.00000189 Ry

     iteration # 12     ecut=   110.00 Ry     beta= 0.50
     Davidson diagonalization with overlap
     ethr =  9.00E-11,  avg # of iterations =  2.0

     total cpu time spent up to now is      857.1 secs

     End of self-consistent calculation

          k = 0.0000 0.0000 0.0000 (398025 PWs)   bands (ev):

  -103.8201-103.7404-103.7343-103.6579-103.6524-103.5708-103.5486-103.5122
  -103.4342-103.4141-103.4095-103.3961-103.3775-103.3678-103.3402-103.2642
   -63.3815 -63.3685 -63.3324 -63.3047 -63.2946 -63.2781 -63.2617 -63.2470
   -63.2434 -63.2401 -63.1978 -63.1929 -63.1890 -63.1745 -63.1648 -63.1597
   -63.1456 -63.1226 -63.1148 -63.0954 -63.0879 -63.0772 -63.0750 -63.0125
   -63.0049 -63.0048 -62.9889 -62.9846 -62.9783 -62.9776 -62.9697 -62.9684
   -62.9658 -62.9606 -62.9587 -62.9461 -62.9417 -62.9360 -62.9296 -62.9265
   -62.9234 -62.9150 -62.9003 -62.8942 -62.8902 -62.8777 -62.8718 -62.8062
   -29.1754 -29.0256 -29.0204 -28.9068 -28.9064 -28.8826 -28.8454 -28.8274
   -28.8139 -28.7959 -28.7376 -28.7251 -28.7076 -28.6420 -28.6293 -28.6241
   -21.4804 -21.4028 -21.3287 -21.2062 -21.1986 -21.1802 -21.1020 -21.0554
   -21.0397 -21.0019 -20.9859 -20.9493 -20.9267 -20.9240 -20.9072 -20.8938
   -20.8264 -20.8166 -20.7905 -20.7545 -20.7440 -20.7332 -20.7196 -20.7098
   -20.7038 -20.6532 -20.6233 -20.6198 -20.6046 -20.5753 -20.5699 -20.5517
   -20.5490 -20.5427 -20.5295 -20.5234 -20.5024 -20.4961 -20.4781 -20.4577
   -20.4451 -20.4335 -20.4132 -20.4062 -20.3896 -20.3628 -20.3544 -20.3522
   -20.3489 -20.3347 -20.3227 -20.2756 -20.2686 -20.2518 -20.2227 -20.2205
   -20.2130 -20.1783 -20.1514 -20.1495 -20.1352 -20.1150 -20.1124 -20.0850
   -20.0688 -20.0612 -20.0483 -20.0440 -20.0389 -20.0114 -20.0082 -20.0047
   -19.9931 -19.9888 -19.9810 -19.9765 -19.9678 -19.9650 -19.9301 -19.9173
   -19.8888 -19.8832 -19.8740 -19.8711 -19.8593 -19.8497 -19.8338 -19.8211
   -19.8073 -19.8034 -19.7873 -19.7760 -19.7724 -19.7586 -19.7515 -19.7438
   -19.7367 -19.7264 -19.7165 -19.7073 -19.6952 -19.6846 -19.6668 -19.6571
   -19.6529 -19.6480 -19.6442 -19.6302 -19.6205 -19.6004 -19.5974 -19.5899
   -19.5774 -19.5727 -19.5695 -19.5658 -19.5232 -19.5192 -19.4949 -19.4823
   -19.4773 -19.4735 -19.4515 -19.4491 -19.4475 -19.4394 -19.4353 -19.4155
   -19.4117 -19.3992 -19.3930 -19.3731 -19.3718 -19.3568 -19.3536 -19.3332
   -19.3293 -19.3208 -19.3155 -19.3010 -19.2951 -19.2906 -19.2790 -19.2707
   -19.2603 -19.2265 -19.2200 -19.2120 -19.2023 -19.1920 -19.1755 -19.1644
   -19.1545 -19.1462 -19.1369 -19.1293 -19.1220 -19.1093 -19.1070 -19.0928
   -19.0810 -19.0664 -19.0626 -19.0350 -19.0180 -19.0065 -18.9975 -18.9883
   -18.9751 -18.9535 -18.9343 -18.9233 -18.9084 -18.8778 -18.8741 -18.8541
   -18.8421 -18.8264 -18.8208 -18.7993 -18.7950 -18.7822 -18.7627 -18.7582
   -18.7532 -18.7258 -18.7232 -18.7106 -18.6929 -18.6844 -18.6765 -18.6648
   -18.6607 -18.6530 -18.6470 -18.6261 -18.6194 -18.6128 -18.5925 -18.5845
   -18.5806 -18.5734 -18.5496 -18.5394 -18.5360 -18.5072 -18.4876 -18.4799
   -18.4733 -18.4452 -18.4343 -18.4249 -18.4027 -18.3944 -18.3940 -18.3667
   -18.3570 -18.3522 -18.3445 -18.3354 -18.3320 -18.3105 -18.3025 -18.2555
   -18.2346 -18.2173 -18.2003 -18.1775 -18.0746 -18.0342 -18.0333 -11.7650
   -11.6902 -11.6884 -11.6208 -11.6132 -11.5935 -11.5630 -11.5149 -11.5121
   -11.5004 -11.4818 -11.4815 -11.4706 -11.4546 -11.4506 -11.4285 -11.4231
   -11.4131 -11.4077 -11.3997 -11.3934 -11.3922 -11.3816 -11.3703 -11.3582
   -11.3497 -11.3460 -11.3430 -11.3333 -11.3173 -11.3161 -11.3038 -11.2953
   -11.2911 -11.2905 -11.2459 -11.2406 -11.2343 -11.2290 -11.2238 -11.2163
   -11.2130 -11.2101 -11.2078 -11.1805 -11.1558 -11.1420 -11.1352  -9.6931
    -9.5822  -9.5640  -9.4518  -9.1586  -9.1050  -9.0369  -9.0234  -8.9943
    -8.9427  -8.8772  -8.8178  -8.8036  -8.7717  -8.7157  -8.6738  -8.6429
    -8.5004  -8.4359  -8.3155  -8.2841  -8.2631  -8.1619  -8.1099  -8.0886
    -8.0781  -8.0298  -8.0111  -8.0069  -7.9763  -7.9605  -7.9065  -7.8718
    -7.8625  -7.7841  -7.7305  -7.6254  -7.6076  -7.5498  -7.5264  -7.5174
    -7.4830  -7.4653  -7.4245  -7.4107  -7.3865  -7.3475  -7.2783  -7.2591
    -7.2560  -7.2485  -7.2398  -7.2180  -7.2110  -7.2082  -7.1892  -7.1831
    -7.1418  -7.1075  -7.0892  -7.0802  -7.0494  -7.0339  -7.0210  -7.0053
    -7.0038  -6.9978  -6.9946  -6.9757  -6.9557  -6.9343  -6.9252  -6.9122
    -6.8848  -6.8537  -6.8362  -6.8168  -6.8150  -6.7952  -6.7895  -6.7759
    -6.7512  -6.7409  -6.7331  -6.7203  -6.7073  -6.6937  -6.6765  -6.6697
    -6.6666  -6.6584  -6.6382  -6.6231  -6.5866  -6.5788  -6.5720  -6.5566
    -6.5410  -6.5363  -6.5304  -6.5229  -6.5189  -6.5066  -6.4861  -6.4850
    -6.4524  -6.4451  -6.4385  -6.4322  -6.4104  -6.4000  -6.3676  -6.3655
    -6.3342  -6.3278  -6.3082  -6.2906  -6.2816  -6.2759  -6.2671  -6.2573
    -6.2453  -6.2332  -6.2293  -6.2257  -6.1981  -6.1882  -6.1773  -6.1656
    -6.1586  -6.1526  -6.1380  -6.1327  -6.1183  -6.1139  -6.1023  -6.0848
    -6.0791  -6.0711  -6.0526  -6.0476  -6.0309  -6.0158  -5.9908  -5.9863
    -5.9802  -5.9679  -5.9584  -5.9474  -5.9372  -5.9244  -5.9041  -5.8912
    -5.8601  -5.8492  -5.8299  -5.8208  -5.8157  -5.8002  -5.7943  -5.7840
    -5.7717  -5.7567  -5.7485  -5.7281  -5.7111  -5.7012  -5.6790  -5.6459
    -5.6229  -5.6111  -5.5628  -5.5510  -5.5262  -5.5201  -5.5130  -5.4887
    -5.4630  -5.4561  -5.4441  -5.4158  -5.3720  -5.3394  -5.3221  -5.3074
    -5.2623  -5.2198  -5.1948  -5.1916  -5.1593  -5.1461  -5.1350  -5.1060
    -5.0849  -5.0776  -5.0581  -5.0333  -5.0114  -4.9932  -4.9766  -4.9423
    -4.9094  -4.8985  -4.8533  -4.8224  -4.8070  -4.7968  -4.7777  -4.7755
    -4.7366  -4.7305  -4.7176  -4.7076  -4.6669  -4.6607  -4.6372  -4.6264
    -4.6094  -4.5964  -4.5847  -4.5699  -4.5625  -4.5236  -4.5115  -4.5072
    -4.4775  -4.4677  -4.4561  -4.4512  -4.4123  -4.4061  -4.3763  -4.3657
    -4.3479  -4.3334  -4.3173  -4.2870  -4.2777  -4.2665  -4.2504  -4.2369
    -4.2319  -4.2097  -4.1929  -4.1749  -4.1548  -4.1350  -4.1063  -4.1008
    -4.0817  -4.0475  -4.0301  -4.0271  -3.9975  -3.9922  -3.9717  -3.9546
    -3.9254  -3.9220  -3.9204  -3.8927  -3.8661  -3.8511  -3.8378  -3.8307
    -3.8167  -3.8085  -3.7827  -3.7757  -3.7648  -3.7405  -3.7379  -3.7278
    -3.7131  -3.7109  -3.7028  -3.6956  -3.6914  -3.6709  -3.6479  -3.6402
    -3.6354  -3.6301  -3.6095  -3.5867  -3.5829  -3.5728  -3.5640  -3.5601
    -3.5416  -3.5255  -3.5225  -3.5068  -3.4929  -3.4855  -3.4725  -3.4672
    -3.4564  -3.4557  -3.4489  -3.4353  -3.4194  -3.4166  -3.4000  -3.3925
    -3.3673  -3.3603  -3.3496  -3.3429  -3.3259  -3.3188  -3.3006  -3.2953
    -3.2804  -3.2678  -3.2667  -3.2592  -3.2486  -3.2385  -3.2234  -3.2138
    -3.1989  -3.1936  -3.1926  -3.1811  -3.1766  -3.1694  -3.1575  -3.1464
    -3.1386  -3.1336  -3.1324  -3.1229  -3.1171  -3.1124  -3.1043  -3.0859
    -3.0790  -3.0701  -3.0530  -3.0406  -3.0363  -3.0318  -3.0209  -3.0143
    -3.0101  -2.9986  -2.9944  -2.9869  -2.9805  -2.9723  -2.9642  -2.9607
    -2.9500  -2.9385  -2.9378  -2.9288  -2.9251  -2.9140  -2.9063  -2.8989
    -2.8909  -2.8826  -2.8759  -2.8551  -2.8430  -2.8411  -2.8289  -2.8212
    -2.8196  -2.8150  -2.8015  -2.7929  -2.7882  -2.7792  -2.7725  -2.7681
    -2.7622  -2.7452  -2.7352  -2.7281  -2.7257  -2.7121  -2.6997  -2.6982
    -2.6935  -2.6869  -2.6748  -2.6667  -2.6595  -2.6486  -2.6387  -2.6359
    -2.6261  -2.6203  -2.6108  -2.6057  -2.5987  -2.5862  -2.5820  -2.5693
    -2.5600  -2.5544  -2.5421  -2.5316  -2.5248  -2.5122  -2.5047  -2.5043
    -2.4947  -2.4873  -2.4773  -2.4624  -2.4421  -2.4265  -2.4153  -2.4077
    -2.3958  -2.3846  -2.3793  -2.3709  -2.3635  -2.3541  -2.3469  -2.3182
    -2.3122  -2.3065  -2.2925  -2.2790  -2.2712  -2.2631  -2.2492  -2.2436
    -2.2317  -2.2245  -2.2166  -2.1993  -2.1933  -2.1864  -2.1748  -2.1633
    -2.1446  -2.1392  -2.1268  -2.1239  -2.1193  -2.1130  -2.1114  -2.1026
    -2.0951  -2.0844  -2.0634  -2.0472  -2.0419  -2.0381  -2.0344  -2.0261
    -2.0219  -2.0057  -2.0037  -1.9907  -1.9865  -1.9743  -1.9695  -1.9572
    -1.9439  -1.9373  -1.9331  -1.9220  -1.9206  -1.9086  -1.9073  -1.8978
    -1.8889  -1.8796  -1.8757  -1.8705  -1.8672  -1.8611  -1.8586  -1.8414
    -1.8389  -1.8211  -1.8130  -1.8032  -1.8024  -1.7895  -1.7760  -1.7721
    -1.7640  -1.7628  -1.7512  -1.7385  -1.7360  -1.7317  -1.7223  -1.7146
    -1.7025  -1.6891  -1.6795  -1.6733  -1.6676  -1.6571  -1.6554  -1.6423
    -1.6397  -1.6279  -1.6211  -1.6185  -1.6098  -1.6066  -1.5971  -1.5931
    -1.5844  -1.5795  -1.5748  -1.5597  -1.5511  -1.5491  -1.5430  -1.5401
    -1.5225  -1.5164  -1.5091  -1.5031  -1.4996  -1.4903  -1.4858  -1.4760
    -1.4736  -1.4551  -1.4507  -1.4475  -1.4418  -1.4370  -1.4315  -1.4195
    -1.4096  -1.4062  -1.3956  -1.3906  -1.3858  -1.3729  -1.3656  -1.3591
    -1.3516  -1.3447  -1.3361  -1.3265  -1.3238  -1.3177  -1.3127  -1.3061
    -1.3023  -1.2822  -1.2802  -1.2728  -1.2696  -1.2619  -1.2530  -1.2450
    -1.2409  -1.2307  -1.2278  -1.2223  -1.2175  -1.2165  -1.2013  -1.1976
    -1.1909  -1.1811  -1.1723  -1.1648  -1.1541  -1.1474  -1.1359  -1.1341
    -1.1224  -1.1184  -1.1141  -1.1055  -1.1044  -1.0939  -1.0872  -1.0804
    -1.0713  -1.0669  -1.0618  -1.0549  -1.0516  -1.0483  -1.0429  -1.0338
    -1.0147  -1.0100  -0.9996  -0.9987  -0.9904  -0.9843  -0.9817  -0.9741
    -0.9682  -0.9618  -0.9523  -0.9510  -0.9374  -0.9286  -0.9236  -0.9161
    -0.9118  -0.9024  -0.8994  -0.8954  -0.8871  -0.8773  -0.8707  -0.8672
    -0.8549  -0.8540  -0.8422  -0.8391  -0.8200  -0.8099  -0.8023  -0.7992
    -0.7853  -0.7713  -0.7689  -0.7643  -0.7440  -0.7405  -0.7351  -0.7295
    -0.7275  -0.7182  -0.6994  -0.6884  -0.6732  -0.6558  -0.6445  -0.6405
    -0.6385  -0.6195  -0.6123  -0.6080  -0.6008  -0.5911  -0.5887  -0.5741
    -0.5707  -0.5697  -0.5632  -0.5561  -0.5481  -0.5419  -0.5227  -0.5165
    -0.5113  -0.5015  -0.4927  -0.4701  -0.4662  -0.4538  -0.4483  -0.4385
    -0.4211  -0.4161  -0.3980  -0.3881  -0.3556  -0.3457  -0.3390  -0.3333
    -0.3185  -0.3004  -0.2880  -0.2739  -0.2486  -0.2414  -0.2160  -0.1913
    -0.1818  -0.1301  -0.1127  -0.0658  -0.0384  -0.0137   0.1017   0.1231
     0.1449   0.2023   0.7587   0.7863

     highest occupied level (ev):     0.7863

!    total energy              =  -11183.99652786 Ry
     estimated scf accuracy    <       0.00000018 Ry

     The total energy is the sum of the following terms:
     one-electron contribution =  -20129.02857470 Ry
     hartree contribution      =   10710.43417949 Ry
     xc contribution           =   -2315.01786387 Ry
     ewald contribution        =     549.61573123 Ry

     convergence has been achieved in  12 iterations

     Forces acting on atoms (cartesian axes, Ry/au):

     atom    1 type  1   force =    -0.00053403   -0.00457631    0.00059449
     atom    2 type  2   force =     0.01244678    0.01444573   -0.00398246
     atom    3 type  3   force =    -0.00090975   -0.01786511    0.00277797
     atom    4 type  3   force =    -0.02652365    0.01321578    0.03018174
     atom    5 type  3   force =     0.04321973    0.01945665   -0.01045420
     atom    6 type  3   force =    -0.00182510   -0.01489573   -0.03307325
     atom    7 type  3   force =     0.00099220    0.02119883   -0.04040348
     atom    8 type  3   force =    -0.03301369   -0.08670495    0.02023954
     atom    9 type  4   force =    -0.01775179    0.00192590    0.00487870
     atom   10 type  4   force =    -0.02483050    0.05427197    0.01780850
     atom   11 type  4   force =     0.02650514    0.00641172   -0.01623252
     atom   12 type  4   force =    -0.02885458   -0.01743493    0.01038758
     atom   13 type  4   force =    -0.03786344   -0.02308619   -0.01211687
     atom   14 type  4   force =     0.02480657    0.03668878   -0.03083328
     atom   15 type  4   force =     0.00860332    0.03051506    0.00147767
     atom   16 type  4   force =     0.02376764   -0.01041523    0.05316427
     atom   17 type  4   force =     0.01419822    0.03141540   -0.00334513
     atom   18 type  4   force =     0.00101624   -0.07897347   -0.00547889
     atom   19 type  4   force =     0.04955455    0.00220468   -0.05428553
     atom   20 type  4   force =     0.00263664    0.00295374   -0.00443760
     atom   21 type  4   force =    -0.06435138    0.00574393    0.01384417
     atom   22 type  4   force =     0.01767521    0.00103858   -0.02457351
     atom   23 type  2   force =     0.01293633   -0.03344648   -0.01819096
     atom   24 type  3   force =    -0.02154290   -0.04552962   -0.00404484
     atom   25 type  3   force =     0.00530171    0.06769887   -0.10332775
     atom   26 type  4   force =    -0.00690873   -0.00329824    0.00817042
     atom   27 type  4   force =     0.00626497   -0.00153876   -0.01793805
     atom   28 type  4   force =     0.01138180   -0.04050072   -0.05402237
     atom   29 type  4   force =     0.03346563    0.01830103   -0.01712294
     atom   30 type  4   force =    -0.00126580   -0.03876158    0.01675895
     atom   31 type  4   force =     0.03021329    0.03475881    0.12447638
     atom   32 type  4   force =    -0.01999747   -0.01564001   -0.01717597
     atom   33 type  4   force =     0.03622913   -0.02201693    0.03622818
     atom   34 type  4   force =     0.00804589   -0.00582715   -0.02025320
     atom   35 type  4   force =    -0.00306459   -0.04060138   -0.01387660
     atom   36 type  2   force =     0.00995911   -0.01979944   -0.05023377
     atom   37 type  3   force =     0.06252236   -0.03140747    0.03935427
     atom   38 type  3   force =     0.05917406    0.03881718   -0.02734206
     atom   39 type  4   force =    -0.03439428    0.02055313    0.01490330
     atom   40 type  4   force =     0.02708290    0.07932394    0.05942684
     atom   41 type  4   force =    -0.03920053    0.01908801   -0.01599605
     atom   42 type  4   force =    -0.03170543    0.02840166    0.06149956
     atom   43 type  4   force =     0.00189026    0.03364734   -0.01375311
     atom   44 type  4   force =     0.02768150    0.06387769    0.02596567
     atom   45 type  4   force =     0.00161478    0.01306924   -0.01691580
     atom   46 type  4   force =     0.01511190    0.00185275   -0.02382660
     atom   47 type  1   force =    -0.00493413   -0.00933195   -0.00412801
     atom   48 type  1   force =    -0.00583590   -0.00774002    0.01249151
     atom   49 type  1   force =     0.00486061   -0.00180543   -0.00328667
     atom   50 type  2   force =    -0.01186553    0.01707885    0.00723229
     atom   51 type  3   force =    -0.05182086   -0.05211117   -0.05713192
     atom   52 type  3   force =    -0.06255831   -0.03015265   -0.07712844
     atom   53 type  3   force =    -0.01499552    0.01600499    0.05445439
     atom   54 type  3   force =     0.04375093    0.04989394    0.12147988
     atom   55 type  3   force =     0.03255068    0.01175200    0.03150439
     atom   56 type  3   force =    -0.02934175    0.01992764    0.00671601
     atom   57 type  4   force =     0.03041378    0.00242848    0.02225625
     atom   58 type  4   force =    -0.03044241   -0.00169950   -0.03865720
     atom   59 type  4   force =     0.03403564   -0.03259037    0.01279104
     atom   60 type  4   force =    -0.01834123   -0.03006737   -0.07997853
     atom   61 type  4   force =     0.03025851   -0.01077831   -0.01022586
     atom   62 type  4   force =     0.03033394   -0.00485446   -0.06632285
     atom   63 type  4   force =    -0.02951391   -0.00880262   -0.00862972
     atom   64 type  4   force =     0.02809788    0.04008401   -0.01984912
     atom   65 type  4   force =     0.01134767   -0.02471896    0.03071663
     atom   66 type  4   force =    -0.02214606   -0.02956674   -0.02733534
     atom   67 type  4   force =    -0.00235741    0.01475932   -0.00694576
     atom   68 type  4   force =     0.04142871   -0.02483788   -0.00576306
     atom   69 type  4   force =    -0.05093977   -0.02288487    0.03703566
     atom   70 type  4   force =    -0.01474322    0.01129339   -0.01076277
     atom   71 type  4   force =     0.01959042    0.01175277    0.04375788
     atom   72 type  4   force =    -0.02251149    0.04195687    0.03646931
     atom   73 type  1   force =    -0.01044651   -0.01433886    0.00316341
     atom   74 type  2   force =     0.00060871    0.00302655    0.03956643
     atom   75 type  2   force =    -0.01629159   -0.02334821   -0.01642479
     atom   76 type  3   force =     0.05265238    0.01585316    0.00272137
     atom   77 type  3   force =     0.02775346    0.05389136    0.02457927
     atom   78 type  3   force =     0.01290437    0.02199928    0.04995031
     atom   79 type  3   force =    -0.01325077   -0.04914846    0.04410118
     atom   80 type  3   force =    -0.00848861    0.04263865    0.05545814
     atom   81 type  3   force =    -0.01639804   -0.01117323    0.03007094
     atom   82 type  4   force =    -0.02877252   -0.00473950    0.01226800
     atom   83 type  4   force =    -0.01145484    0.00482408    0.03173571
     atom   84 type  4   force =    -0.00289168    0.01791657    0.00766381
     atom   85 type  4   force =    -0.01984259   -0.01736094    0.01614304
     atom   86 type  4   force =     0.01920413    0.00281414    0.00184139
     atom   87 type  4   force =     0.03048254   -0.00270117   -0.02415752
     atom   88 type  4   force =     0.00613124   -0.00849726    0.01789222
     atom   89 type  4   force =     0.01683959   -0.00659497   -0.07146678
     atom   90 type  4   force =     0.00112784   -0.02134702   -0.08086021
     atom   91 type  4   force =     0.01516518   -0.03112060   -0.02974186
     atom   92 type  4   force =     0.00823917   -0.10695394   -0.05188602
     atom   93 type  4   force =     0.00705468    0.00954226    0.02706486
     atom   94 type  4   force =     0.00928555    0.01741014    0.00501926
     atom   95 type  4   force =    -0.02269861    0.00704469    0.00516907
     atom   96 type  4   force =    -0.06703038    0.03624633   -0.04647120
     atom   97 type  1   force =     0.00840179    0.01235842   -0.02247195
     atom   98 type  1   force =     0.00660564    0.00648854   -0.00035481
     atom   99 type  1   force =     0.01275650   -0.00180899   -0.00955802
     atom  100 type  2   force =     0.04130329    0.02668360    0.02211576
     atom  101 type  2   force =    -0.03857041    0.03414196   -0.00643461
     atom  102 type  3   force =    -0.06336835    0.05557365    0.05651896
     atom  103 type  3   force =     0.02159960    0.00609195    0.03323734
     atom  104 type  3   force =     0.02035504   -0.03292689    0.02311785
     atom  105 type  3   force =     0.03707046   -0.10281502    0.02144328
     atom  106 type  3   force =     0.04664464   -0.02029571   -0.06120122
     atom  107 type  3   force =     0.02013730   -0.04187240    0.02243535
     atom  108 type  4   force =     0.00671920    0.01980208    0.01451592
     atom  109 type  4   force =    -0.02890162    0.00009648    0.00247705
     atom  110 type  4   force =     0.03392419   -0.00570133   -0.00121641
     atom  111 type  4   force =    -0.00869558   -0.03174735   -0.01915592
     atom  112 type  4   force =    -0.02616683    0.06781438    0.01166307
     atom  113 type  4   force =     0.00714714    0.02176224   -0.00781635
     atom  114 type  4   force =     0.01415526    0.02365942   -0.03613433
     atom  115 type  4   force =    -0.00879880   -0.02674366    0.02607605
     atom  116 type  4   force =     0.04533168    0.02477413   -0.01323937
     atom  117 type  4   force =    -0.00019155    0.01684090    0.00504553
     atom  118 type  4   force =    -0.01694775    0.03698265    0.03128429
     atom  119 type  4   force =     0.01837660    0.00510214   -0.03208938
     atom  120 type  4   force =     0.01022408   -0.02285457   -0.00786187
     atom  121 type  4   force =    -0.03244584    0.00384738   -0.01207877
     atom  122 type  4   force =    -0.00936069   -0.05619945    0.00632859
     atom  123 type  4   force =    -0.03680468    0.03167080   -0.04175110
     atom  124 type  4   force =    -0.00830846    0.03169381   -0.01495985
     atom  125 type  5   force =    -0.01318299   -0.00851978   -0.05482668
     atom  126 type  5   force =    -0.01717217   -0.02808322   -0.01031812
     atom  127 type  5   force =    -0.03595694   -0.06268252   -0.02887687
     atom  128 type  5   force =    -0.00915654    0.01185933    0.02769706
     atom  129 type  5   force =    -0.00492593    0.00991651    0.03473284
     atom  130 type  5   force =     0.02780965   -0.03268394    0.00668033
     atom  131 type  5   force =    -0.00926491    0.00774670   -0.00129929
     atom  132 type  5   force =     0.00707032    0.01874029   -0.02104407
     atom  133 type  5   force =     0.00045913   -0.00800900    0.00106323
     atom  134 type  5   force =     0.00905558    0.00106882    0.01628196
     atom  135 type  5   force =    -0.01782352   -0.00211064    0.02431517
     atom  136 type  5   force =    -0.01807925    0.01466153    0.03453642
     atom  137 type  5   force =    -0.00661205    0.00712191    0.04408129
     atom  138 type  5   force =     0.00437824    0.01443911   -0.00473494
     atom  139 type  5   force =     0.00050934    0.01940627    0.00179716
     atom  140 type  5   force =    -0.03747948   -0.00482652    0.00499684
     atom  141 type  1   force =     0.00757541    0.01966514   -0.00535885
     atom  142 type  2   force =    -0.00713463   -0.03365281    0.06970423
     atom  143 type  3   force =     0.04057218    0.03012846   -0.06877592
     atom  144 type  3   force =    -0.10104161    0.01006195    0.02761333
     atom  145 type  3   force =    -0.01947825   -0.00144813   -0.05811005
     atom  146 type  3   force =     0.08157480    0.01361311   -0.01222143
     atom  147 type  3   force =    -0.02323900   -0.00528361   -0.09369913
     atom  148 type  3   force =     0.07736897    0.02288355   -0.02482406
     atom  149 type  4   force =     0.04437855   -0.01227029    0.00827140
     atom  150 type  4   force =     0.01450621    0.09712268    0.02911928
     atom  151 type  4   force =    -0.05301346   -0.00903640    0.02722514
     atom  152 type  4   force =    -0.00778199    0.00880956   -0.02071573
     atom  153 type  4   force =    -0.04912147   -0.10911557    0.01481814
     atom  154 type  4   force =    -0.03916975   -0.03404864    0.02841177
     atom  155 type  4   force =    -0.01927116   -0.01021709    0.01156871
     atom  156 type  4   force =     0.02107286    0.05336556    0.06460759
     atom  157 type  4   force =    -0.01220933   -0.00027879    0.01110682
     atom  158 type  4   force =     0.01817187   -0.04431187   -0.00925979
     atom  159 type  4   force =     0.03191153    0.00096159    0.01602649
     atom  160 type  4   force =    -0.01307470   -0.01028980   -0.00633253
     atom  161 type  4   force =     0.07542787   -0.02083652    0.08455912
     atom  162 type  4   force =    -0.04604597   -0.00115983   -0.05102032
     atom  163 type  2   force =     0.01019779    0.02530059    0.00244961
     atom  164 type  3   force =    -0.04669254   -0.04849284    0.02246464
     atom  165 type  3   force =     0.01732616    0.02388920   -0.04015819
     atom  166 type  4   force =     0.01004788   -0.00098919   -0.00410143
     atom  167 type  4   force =    -0.07392077   -0.02275744    0.03225763
     atom  168 type  4   force =     0.02036345   -0.01917387    0.09347484
     atom  169 type  4   force =     0.00694380   -0.01392495   -0.00976438
     atom  170 type  4   force =     0.00207686    0.01971347   -0.00408751
     atom  171 type  4   force =    -0.01404324   -0.01901499   -0.00396555
     atom  172 type  4   force =    -0.00092631   -0.00655359    0.00598516
     atom  173 type  4   force =     0.00638403   -0.01615505    0.01183783
     atom  174 type  4   force =    -0.02536267    0.00249663    0.01023440
     atom  175 type  4   force =    -0.01455716    0.02769655   -0.03781152
     atom  176 type  2   force =     0.00905103    0.04142833   -0.00462123
     atom  177 type  3   force =     0.02808552    0.03922396    0.00249704
     atom  178 type  3   force =     0.01062977   -0.04263987    0.03466686
     atom  179 type  4   force =    -0.00908799    0.01787877   -0.01746174
     atom  180 type  4   force =     0.00873583   -0.01060805   -0.00455715
     atom  181 type  4   force =    -0.02164933   -0.00112156    0.02774919
     atom  182 type  4   force =     0.00081449    0.03781437    0.05552887
     atom  183 type  4   force =     0.00124423    0.00847052   -0.04168548
     atom  184 type  4   force =     0.00180497   -0.00613517    0.02278775
     atom  185 type  4   force =    -0.00523655   -0.04397110    0.00916687
     atom  186 type  4   force =    -0.00869275    0.02648745   -0.03311866
     atom  187 type  1   force =     0.01015142    0.00541516    0.00411330
     atom  188 type  1   force =    -0.00540974   -0.01596985    0.00118596
     atom  189 type  1   force =     0.00916435   -0.00699231    0.00880737
     atom  190 type  2   force =     0.02072997    0.03822881   -0.05383673
     atom  191 type  3   force =     0.01135363    0.00111620    0.01189161
     atom  192 type  3   force =     0.04969568    0.05168071   -0.06521438
     atom  193 type  3   force =    -0.01214893    0.03014930   -0.01746703
     atom  194 type  3   force =     0.03101121   -0.01231911   -0.01603749
     atom  195 type  3   force =     0.00669529    0.04774401    0.05098217
     atom  196 type  3   force =    -0.01995680    0.02650832   -0.01907357
     atom  197 type  4   force =    -0.03102331   -0.01202082    0.02659170
     atom  198 type  4   force =    -0.00165589   -0.03111717    0.00672077
     atom  199 type  4   force =     0.00028903   -0.01597037   -0.01489626
     atom  200 type  4   force =    -0.00975905    0.03016786    0.04412984
     atom  201 type  4   force =     0.00398166   -0.01176645    0.00334049
     atom  202 type  4   force =     0.01516739   -0.01086549   -0.01210676
     atom  203 type  4   force =     0.00892097   -0.01424404   -0.01105218
     atom  204 type  4   force =    -0.05559073   -0.06645038    0.03720474
     atom  205 type  4   force =     0.01430299    0.01502809    0.01387307
     atom  206 type  4   force =    -0.00012260    0.04667208    0.00417539
     atom  207 type  4   force =    -0.02611438   -0.01404417   -0.01255827
     atom  208 type  4   force =     0.00125550   -0.00614119    0.00054530
     atom  209 type  4   force =    -0.01308870    0.01286426   -0.04513260
     atom  210 type  4   force =     0.05664992   -0.08452855    0.01303412
     atom  211 type  4   force =     0.00696383   -0.02172415    0.01196468
     atom  212 type  4   force =    -0.01533238   -0.01822346    0.00910192
     atom  213 type  1   force =    -0.01108582   -0.00834359    0.00241569
     atom  214 type  2   force =     0.07523343   -0.00834508   -0.01113211
     atom  215 type  2   force =    -0.03036142    0.02040780    0.01036004
     atom  216 type  3   force =    -0.01370373   -0.04236510   -0.04000489
     atom  217 type  3   force =    -0.04862249    0.01759354   -0.02369112
     atom  218 type  3   force =     0.04345328   -0.01020608   -0.01141797
     atom  219 type  3   force =    -0.05758891   -0.02094344    0.01844971
     atom  220 type  3   force =    -0.00656786   -0.03044274   -0.04167869
     atom  221 type  3   force =     0.00022501    0.01086916    0.00930905
     atom  222 type  4   force =    -0.06276186   -0.02721209   -0.01033178
     atom  223 type  4   force =     0.06140363    0.01251083   -0.00611261
     atom  224 type  4   force =    -0.02384994   -0.02153831   -0.01299333
     atom  225 type  4   force =    -0.01551512    0.00980800   -0.00383017
     atom  226 type  4   force =     0.06098274    0.01821977   -0.05973139
     atom  227 type  4   force =     0.01600182   -0.02214692    0.02910087
     atom  228 type  4   force =    -0.02372209   -0.03364604    0.02787005
     atom  229 type  4   force =    -0.01985615    0.00709137    0.00784064
     atom  230 type  4   force =     0.00765255    0.03028002    0.02242700
     atom  231 type  4   force =     0.00255716    0.01176529    0.02260701
     atom  232 type  4   force =    -0.01499543   -0.01442004   -0.00855283
     atom  233 type  4   force =    -0.03293521    0.00625229   -0.00162401
     atom  234 type  4   force =     0.01157377   -0.02630066    0.01003192
     atom  235 type  4   force =     0.01904900    0.02437909    0.02187250
     atom  236 type  4   force =     0.00284140    0.02898633    0.01988768
     atom  237 type  1   force =    -0.00277815   -0.00029144    0.01093664
     atom  238 type  1   force =    -0.00449801   -0.00758817    0.00444129
     atom  239 type  1   force =    -0.01902682   -0.00986402    0.00449079
     atom  240 type  2   force =     0.02326885    0.04299392   -0.00207484
     atom  241 type  2   force =    -0.00797280    0.00176238   -0.02130982
     atom  242 type  3   force =    -0.08353197    0.06393658   -0.02183722
     atom  243 type  3   force =    -0.08324408    0.01562091   -0.02657603
     atom  244 type  3   force =    -0.02240587   -0.04260877    0.01973372
     atom  245 type  3   force =    -0.00812756    0.03622718    0.06731233
     atom  246 type  3   force =     0.01742685    0.01582945   -0.02163541
     atom  247 type  3   force =    -0.04297972   -0.01818857   -0.01066154
     atom  248 type  4   force =    -0.07646026   -0.00823395    0.01834685
     atom  249 type  4   force =     0.06053051   -0.01409608   -0.00625002
     atom  250 type  4   force =    -0.01790694    0.02993874    0.04908744
     atom  251 type  4   force =    -0.01559513    0.01013633    0.02515860
     atom  252 type  4   force =     0.00652874    0.00205653   -0.04955922
     atom  253 type  4   force =     0.03043100   -0.00073534   -0.06881485
     atom  254 type  4   force =    -0.03717203    0.01452441    0.01719138
     atom  255 type  4   force =    -0.00209065    0.02044675   -0.03439438
     atom  256 type  4   force =     0.02518498    0.03593979   -0.03466614
     atom  257 type  4   force =    -0.00942189   -0.04381618    0.01022567
     atom  258 type  4   force =     0.01004395    0.01278291    0.04536782
     atom  259 type  4   force =     0.01034826   -0.05487649   -0.01212864
     atom  260 type  4   force =    -0.02777414    0.00304711   -0.03571754
     atom  261 type  4   force =     0.02702781   -0.01503448   -0.00488712
     atom  262 type  4   force =     0.02197205    0.00841616    0.00219678
     atom  263 type  4   force =     0.04713226   -0.02905823    0.03887066
     atom  264 type  4   force =     0.05995308   -0.00662574    0.06264324
     atom  265 type  5   force =     0.01063006   -0.01944216   -0.00192870
     atom  266 type  5   force =    -0.00985826   -0.05109411   -0.02128776
     atom  267 type  5   force =     0.00142143   -0.00962739   -0.01945663
     atom  268 type  5   force =    -0.00660334   -0.01741481    0.01697892
     atom  269 type  5   force =     0.00275359    0.01148580    0.02652450
     atom  270 type  5   force =    -0.01504858    0.00147393   -0.00358546
     atom  271 type  5   force =    -0.00198230   -0.00105775   -0.00956786
     atom  272 type  5   force =    -0.01233307   -0.01960032    0.02911079
     atom  273 type  5   force =     0.01531669    0.08219972    0.01360784
     atom  274 type  5   force =     0.00451853    0.01271493   -0.01300667
     atom  275 type  5   force =     0.01894076    0.01657963   -0.00106300
     atom  276 type  5   force =     0.05474975    0.01711954    0.03995573
     atom  277 type  5   force =    -0.01996310   -0.00473340   -0.06913195
     atom  278 type  5   force =     0.00517829   -0.00472387   -0.00043363
     atom  279 type  5   force =     0.00648735   -0.00401818   -0.01200155
     atom  280 type  5   force =     0.01024439    0.01292796   -0.00816657
     atom  281 type  4   force =     0.02673771   -0.01766460   -0.01453823
     atom  282 type  5   force =    -0.02465491    0.02836562   -0.01610694
     atom  283 type  5   force =    -0.01523760   -0.01903739    0.02304671
     atom  284 type  4   force =    -0.06414835    0.01857467    0.01402960
     atom  285 type  5   force =     0.04269617    0.00971163   -0.04260614
     atom  286 type  5   force =     0.02035791   -0.02646327    0.01256348
     atom  287 type  4   force =     0.04201999    0.00011401    0.02009161
     atom  288 type  5   force =    -0.02343868   -0.01135793   -0.02229495
     atom  289 type  5   force =     0.00386014   -0.00674640   -0.00929244
     atom  290 type  4   force =    -0.05320877    0.00435702    0.06385442
     atom  291 type  5   force =    -0.00821833    0.01046403   -0.01457750
     atom  292 type  5   force =     0.06227234   -0.02285367   -0.04351256
     atom  293 type  4   force =    -0.00362171   -0.03117382   -0.08352476
     atom  294 type  5   force =    -0.00378507    0.03203888    0.04938104
     atom  295 type  5   force =    -0.00097465    0.01651570    0.02998495
     atom  296 type  4   force =     0.03394558   -0.02093488    0.02363910
     atom  297 type  5   force =     0.02242720    0.02184155   -0.01875947
     atom  298 type  5   force =    -0.06182238   -0.00293678   -0.00512607
     atom  299 type  4   force =     0.00270858    0.03728670    0.00767429
     atom  300 type  5   force =     0.00388784    0.00707867   -0.00234555
     atom  301 type  5   force =     0.00237336   -0.02169238   -0.01539645
     atom  302 type  4   force =    -0.00241377   -0.01271945   -0.01263846
     atom  303 type  5   force =     0.00445893   -0.01601866   -0.00345209
     atom  304 type  5   force =     0.02200066    0.00783476    0.02089794
     atom  305 type  4   force =    -0.00761584    0.02213780   -0.00647500
     atom  306 type  5   force =     0.01085889   -0.00395871    0.00168081
     atom  307 type  5   force =    -0.00562841   -0.00825829   -0.00970781
     atom  308 type  4   force =    -0.01331991    0.00919568   -0.00284992
     atom  309 type  5   force =     0.01733480   -0.01601043    0.00112751
     atom  310 type  5   force =    -0.01116812   -0.00987187   -0.00509700
     atom  311 type  4   force =     0.01666736   -0.05190227   -0.04082930
     atom  312 type  5   force =     0.01566371    0.03566673    0.02624310
     atom  313 type  5   force =    -0.02593113    0.00761081    0.02672434
     atom  314 type  4   force =    -0.03800336    0.02292192   -0.03183140
     atom  315 type  5   force =     0.04241440   -0.01500890    0.01842752
     atom  316 type  5   force =     0.00322833    0.00006025    0.02180433
     atom  317 type  4   force =    -0.02080016   -0.01241821   -0.00610234
     atom  318 type  5   force =     0.00245587    0.01576525    0.00731905
     atom  319 type  5   force =     0.03165497    0.00661631    0.00189488
     atom  320 type  4   force =    -0.01174573   -0.04895121   -0.02433342
     atom  321 type  5   force =     0.00549074    0.02704673    0.02086174
     atom  322 type  5   force =     0.01473660    0.02137107    0.01858251
     atom  323 type  4   force =     0.01039589    0.00001779   -0.05151090
     atom  324 type  5   force =    -0.00391463   -0.01183180    0.00173933
     atom  325 type  5   force =    -0.00714500    0.02771562    0.05052447
     atom  326 type  4   force =     0.01171979   -0.01062061    0.02598291
     atom  327 type  5   force =    -0.00132326   -0.01116971   -0.01345739
     atom  328 type  5   force =    -0.00876850    0.01762106   -0.00664476
     atom  329 type  4   force =    -0.04881551   -0.04967303    0.03025287
     atom  330 type  5   force =     0.00414519    0.02764199   -0.00635403
     atom  331 type  5   force =     0.05043059    0.02032546   -0.01690256
     atom  332 type  4   force =    -0.04904693    0.05981267   -0.00456355
     atom  333 type  5   force =     0.01050260   -0.06019147   -0.02861552
     atom  334 type  5   force =     0.05873505   -0.00101593   -0.04029898
     atom  335 type  4   force =     0.00655195   -0.01090790   -0.00705103
     atom  336 type  5   force =     0.01549184    0.02327730    0.01252762
     atom  337 type  5   force =     0.00293337   -0.01293275   -0.00649219
     atom  338 type  4   force =     0.00934748   -0.01388514    0.01591644
     atom  339 type  5   force =    -0.00060133    0.01669513    0.00658079
     atom  340 type  5   force =    -0.01584910   -0.00136697   -0.03301697
     atom  341 type  4   force =    -0.00295817    0.02024816   -0.06754669
     atom  342 type  5   force =    -0.00363521   -0.00736519    0.06696817
     atom  343 type  5   force =     0.00227671   -0.02356192   -0.00667435
     atom  344 type  4   force =     0.01705791   -0.01676419   -0.01220754
     atom  345 type  5   force =    -0.01451736    0.01109392    0.02084175
     atom  346 type  5   force =    -0.01361263   -0.00357296   -0.00902094
     atom  347 type  4   force =     0.07651298   -0.05060864    0.03703643
     atom  348 type  5   force =    -0.07476303    0.04119255    0.00469997
     atom  349 type  5   force =     0.00406915    0.01303779   -0.04926233
     atom  350 type  4   force =     0.03571533   -0.03093229   -0.05313764
     atom  351 type  5   force =    -0.04231735    0.03994455    0.02292832
     atom  352 type  5   force =    -0.01594361   -0.00743744    0.03261275
     atom  353 type  4   force =     0.00025167   -0.00280967   -0.02624347
     atom  354 type  5   force =    -0.00931237    0.00241746    0.00058894
     atom  355 type  5   force =    -0.00559180    0.00636568    0.02442897
     atom  356 type  4   force =    -0.07761659   -0.03652118    0.00582768
     atom  357 type  5   force =     0.06046338    0.00867691   -0.00181978
     atom  358 type  5   force =     0.01001321    0.01700388   -0.00961972
     atom  359 type  4   force =    -0.03654501    0.07475760    0.04149493
     atom  360 type  5   force =     0.02120916   -0.00801160    0.00898983
     atom  361 type  5   force =     0.00668908   -0.06441381   -0.03787639
     atom  362 type  4   force =    -0.03297090    0.02643539    0.01154968
     atom  363 type  5   force =     0.02589329   -0.02344395   -0.03120168
     atom  364 type  5   force =     0.01943747   -0.01092766    0.01545491
     atom  365 type  4   force =    -0.08865705   -0.06167057   -0.03691096
     atom  366 type  5   force =     0.00854496    0.01185985   -0.00122814
     atom  367 type  5   force =     0.07864637    0.05000581    0.03496733
     atom  368 type  4   force =     0.08814151   -0.05986394   -0.02305215
     atom  369 type  5   force =    -0.08685358    0.04112790    0.00335142
     atom  370 type  5   force =     0.01488671    0.00751501    0.01474492
     atom  371 type  4   force =     0.06112678    0.02886154    0.02748521
     atom  372 type  5   force =    -0.04347115    0.01055181   -0.02985251
     atom  373 type  5   force =    -0.01799326   -0.04261709    0.02149453
     atom  374 type  4   force =     0.01769282    0.03395273    0.00739752
     atom  375 type  5   force =    -0.01629154   -0.02808049   -0.00112411
     atom  376 type  5   force =    -0.00470442   -0.00209812   -0.01213975
     atom  377 type  4   force =    -0.02775129    0.06891485   -0.04273827
     atom  378 type  5   force =     0.03706892   -0.06670708    0.03880875
     atom  379 type  5   force =    -0.02156411   -0.01356698    0.00328245
     atom  380 type  4   force =    -0.03269730   -0.03893544    0.01507854
     atom  381 type  5   force =     0.01420870    0.02073833   -0.00857146
     atom  382 type  5   force =    -0.00553902   -0.01794319    0.02250121
     atom  383 type  4   force =    -0.08660765   -0.00143377    0.00509918
     atom  384 type  5   force =     0.03057535   -0.01852287    0.01219755
     atom  385 type  5   force =     0.06556513    0.03083697   -0.01390627
     atom  386 type  4   force =     0.06263975   -0.02285382   -0.04440313
     atom  387 type  5   force =    -0.06881592    0.01935124    0.05333395
     atom  388 type  5   force =     0.00944798    0.00498550   -0.00741382
     atom  389 type  4   force =     0.01183158    0.00899375   -0.04034290
     atom  390 type  5   force =     0.02343191    0.01521942    0.01561897
     atom  391 type  5   force =     0.00413565    0.01433316    0.00367926
     atom  392 type  4   force =     0.10073667    0.05411737   -0.10340472
     atom  393 type  5   force =    -0.10810645   -0.02706446    0.03488055
     atom  394 type  5   force =    -0.00308867   -0.01986136    0.07622021
     atom  395 type  4   force =    -0.01043993    0.00342133   -0.00333600
     atom  396 type  5   force =     0.00326957   -0.01500725    0.02534546
     atom  397 type  5   force =    -0.01144870    0.00926979   -0.01028883
     atom  398 type  4   force =    -0.00112219    0.00079418   -0.01450273
     atom  399 type  5   force =    -0.00778361   -0.00065877   -0.01340201
     atom  400 type  5   force =    -0.01434831    0.00875167    0.03292702
     atom  401 type  4   force =     0.04831930   -0.00438914    0.09422937
     atom  402 type  5   force =     0.00745140    0.01940546   -0.03585546
     atom  403 type  5   force =    -0.05050973   -0.01624449   -0.05576142
     atom  404 type  4   force =     0.07883946   -0.06192611   -0.04956883
     atom  405 type  5   force =    -0.05375066    0.04379834   -0.05304714
     atom  406 type  5   force =    -0.00650054    0.02148438    0.08427859
     atom  407 type  4   force =    -0.02647644    0.04220127    0.06664080
     atom  408 type  5   force =     0.03237975    0.01951597    0.01263306
     atom  409 type  5   force =    -0.01479553   -0.05825197   -0.07501305
     atom  410 type  4   force =    -0.03783755   -0.00851230   -0.00886428
     atom  411 type  5   force =    -0.00200673   -0.02375212    0.02770410
     atom  412 type  5   force =     0.02353759    0.02812271   -0.01566983
     atom  413 type  4   force =    -0.03649123    0.03138408   -0.00255318
     atom  414 type  5   force =     0.04782377   -0.05756366    0.01234684
     atom  415 type  5   force =     0.00464213    0.01344216   -0.01675901
     atom  416 type  4   force =     0.10520403   -0.02653532    0.00671021
     atom  417 type  5   force =    -0.06692850    0.02554109   -0.03571140
     atom  418 type  5   force =    -0.02304272   -0.00799793    0.01040377
     atom  419 type  4   force =    -0.04340789    0.02964889   -0.02595725
     atom  420 type  5   force =     0.03530718    0.01477378   -0.02391302
     atom  421 type  5   force =     0.02636500   -0.04224730    0.03927482
     atom  422 type  4   force =    -0.00915938    0.01901018   -0.02181385
     atom  423 type  5   force =     0.02620465    0.00389063    0.01910564
     atom  424 type  5   force =    -0.01299564   -0.01320457    0.00556669
     atom  425 type  4   force =    -0.00400753    0.00400894   -0.00861639
     atom  426 type  5   force =     0.00594855   -0.01084486    0.00103756
     atom  427 type  5   force =    -0.01107363    0.00375488    0.00595251
     atom  428 type  4   force =     0.01470219    0.03478617   -0.04476660
     atom  429 type  5   force =    -0.01007395   -0.03152167    0.05051993
     atom  430 type  5   force =     0.00537306    0.00218795   -0.00573046
     atom  431 type  4   force =    -0.01274043   -0.02688766   -0.01500756
     atom  432 type  5   force =    -0.00676864    0.04125927    0.00787688
     atom  433 type  5   force =     0.01614786   -0.01066710   -0.00738175
     atom  434 type  4   force =     0.04244396   -0.02065231    0.01748931
     atom  435 type  5   force =    -0.01083143    0.00432171   -0.00337447
     atom  436 type  5   force =    -0.03056609    0.00495238   -0.00704496
     atom  437 type  4   force =    -0.01134091    0.01040364   -0.01538417
     atom  438 type  5   force =     0.00571838   -0.00561482   -0.01318346
     atom  439 type  5   force =     0.00337257    0.00800738    0.01847420
     atom  440 type  4   force =     0.01258797    0.01384559   -0.00715284
     atom  441 type  5   force =     0.01185322   -0.02002062    0.00881933
     atom  442 type  5   force =    -0.01769070    0.01186680   -0.01406054
     atom  443 type  4   force =     0.00326226    0.05476220   -0.06049615
     atom  444 type  5   force =    -0.00205688   -0.04108395    0.04319565
     atom  445 type  5   force =     0.00613645   -0.00322068    0.01879990
     atom  446 type  4   force =    -0.01713042    0.02521506   -0.00279616
     atom  447 type  5   force =     0.00563337    0.01048119   -0.00677504
     atom  448 type  5   force =     0.00094621   -0.03261825    0.00289896
     atom  449 type  4   force =    -0.03397432    0.02736554    0.00281270
     atom  450 type  5   force =    -0.02175530   -0.04874486   -0.00348613
     atom  451 type  5   force =     0.04747364    0.01487823    0.00322739
     atom  452 type  4   force =     0.01660030   -0.01850267   -0.00574142
     atom  453 type  5   force =    -0.00941443    0.01521871    0.00395733
     atom  454 type  5   force =    -0.00315302    0.00895924    0.02032792
     atom  455 type  4   force =    -0.05262507   -0.07641999    0.03274995
     atom  456 type  5   force =     0.01694235    0.06992361   -0.04134942
     atom  457 type  5   force =     0.03661821    0.01099070    0.00607665
     atom  458 type  4   force =     0.02798485    0.02026801   -0.03020060
     atom  459 type  5   force =    -0.01493451    0.00932589    0.02991306
     atom  460 type  5   force =    -0.01111953   -0.01955337   -0.00606383
     atom  461 type  4   force =     0.00651799   -0.00947423   -0.01559319
     atom  462 type  5   force =     0.03204426    0.03104309   -0.03935628
     atom  463 type  5   force =    -0.02358193   -0.03530210    0.04529763
     atom  464 type  4   force =    -0.06690218   -0.04659063    0.02735769
     atom  465 type  5   force =     0.07502628    0.06412031   -0.03780872
     atom  466 type  5   force =     0.00260507   -0.01230202    0.00181769
     atom  467 type  4   force =     0.01644770   -0.02385744   -0.01226116
     atom  468 type  5   force =    -0.02424754    0.00899409   -0.01622928
     atom  469 type  5   force =     0.01217831   -0.01004825    0.03127833
     atom  470 type  4   force =    -0.00433471   -0.00974077   -0.01710892
     atom  471 type  5   force =     0.03115267    0.01581828   -0.02202024
     atom  472 type  5   force =    -0.01944928   -0.00172764    0.03156312
     atom  473 type  4   force =     0.01126686   -0.06621713    0.00838424
     atom  474 type  5   force =    -0.00222380    0.02388732   -0.02740559
     atom  475 type  5   force =    -0.01457651    0.03183969    0.01606458
     atom  476 type  4   force =    -0.03949973   -0.03041413   -0.04127966
     atom  477 type  5   force =    -0.00190034   -0.00119606    0.00354092
     atom  478 type  5   force =     0.04008967    0.02150258    0.03836603
     atom  479 type  4   force =    -0.06462241   -0.02378455   -0.01718929
     atom  480 type  5   force =     0.04286525    0.00425770    0.02051386
     atom  481 type  5   force =     0.00990590    0.01482897    0.00149674
     atom  482 type  4   force =    -0.01885082    0.02293451    0.04723122
     atom  483 type  5   force =     0.03574815   -0.02623254   -0.05499007
     atom  484 type  5   force =    -0.01730990    0.02118792    0.01635340
     atom  485 type  4   force =     0.00064376   -0.01166703    0.02277722
     atom  486 type  5   force =     0.00207555   -0.00847791    0.00201426
     atom  487 type  5   force =    -0.01181294    0.01179915   -0.03199513
     atom  488 type  4   force =    -0.00730173    0.05521456   -0.03301739
     atom  489 type  5   force =     0.00996649    0.01436250    0.02885486
     atom  490 type  5   force =    -0.01198813   -0.04320472    0.01620860
     atom  491 type  4   force =    -0.01933385    0.07189791   -0.05995075
     atom  492 type  5   force =     0.03395701   -0.01677405    0.00798215
     atom  493 type  5   force =    -0.01914407   -0.04063043    0.06356616

     Total force =     1.183526     Total SCF correction =     0.000337
     Message from routine punch:
     Nothing written, as per user request (disk_io='none')

     init_run     :     35.59s CPU     36.57s WALL (       1 calls)
     electrons    :    803.90s CPU    820.15s WALL (       1 calls)
     forces       :      9.23s CPU      9.87s WALL (       1 calls)

     Called by init_run:
     wfcinit      :     31.50s CPU     32.23s WALL (       1 calls)
     potinit      :      0.89s CPU      1.02s WALL (       1 calls)
     hinit0       :      1.69s CPU      1.74s WALL (       1 calls)

     Called by electrons:
     c_bands      :    668.78s CPU    682.19s WALL (      12 calls)
     sum_band     :    132.14s CPU    133.80s WALL (      12 calls)
     v_of_rho     :      2.39s CPU      3.42s WALL (      13 calls)
     mix_rho      :      0.55s CPU      0.78s WALL (      12 calls)

     Called by c_bands:
     init_us_2    :      3.04s CPU      3.19s WALL (      25 calls)
     init_us_2:cp :      3.04s CPU      3.19s WALL (      25 calls)
     regterg      :    665.31s CPU    677.38s WALL (      12 calls)

     Called by *egterg:
     rdiaghg      :      6.40s CPU      6.98s WALL (      38 calls)
     h_psi        :    590.87s CPU    598.82s WALL (      39 calls)
     g_psi        :      0.37s CPU      0.37s WALL (      26 calls)

     Called by h_psi:
     h_psi:calbec :     42.33s CPU     43.88s WALL (      39 calls)
     vloc_psi     :    127.22s CPU    128.77s WALL (      39 calls)
     add_vuspsi   :     38.58s CPU     39.28s WALL (      39 calls)
     h_psi_meta   :    381.51s CPU    385.64s WALL (      39 calls)

     General routines
     calbec       :     48.00s CPU     49.77s WALL (      43 calls)
     fft          :      2.91s CPU      3.65s WALL (     129 calls)
     ffts         :      0.16s CPU      0.25s WALL (      24 calls)
     fftw         :    578.90s CPU    585.16s WALL (  150600 calls)
     interpolate  :      0.01s CPU      0.01s WALL (      13 calls)

     Parallel routines

     PWSCF        :  14m 8.91s CPU  14m27.14s WALL


   This run was terminated on:  11: 3: 9   9Mar2025            

=------------------------------------------------------------------------------=
   JOB DONE.
=------------------------------------------------------------------------------=
