
     Program PWSCF v.7.3 starts on  9Mar2025 at 11: 3:25 

     This program is part of the open-source Quantum ESPRESSO suite
     for quantum simulation of materials; please cite
         "P. Giannozzi et al., J. Phys.:Condens. Matter 21 395502 (2009);
         "P. Giannozzi et al., J. Phys.:Condens. Matter 29 465901 (2017);
         "P. Giannozzi et al., J. Chem. Phys. 152 154105 (2020);
          URL http://www.quantum-espresso.org", 
     in publications or presentations arising from this work. More details at
     http://www.quantum-espresso.org/quote

     Parallel version (MPI & OpenMP), running on     120 processor cores
     Number of MPI processes:               120
     Threads/MPI process:                     1

     MPI processes distributed on     1 nodes
     587847 MiB available memory on the printing compute node when the environment starts

     Reading input from pw-water-92.in
Warning: card &CELL ignored
Warning: card / ignored
Warning: card &FCP ignored
Warning: card / ignored
Warning: card &RISM ignored
Warning: card / ignored

     Current dimensions of program PWSCF are:
     Max number of different atomic species (ntypx) = 10
     Max number of k-points (npk) =  40000
     Max angular momentum in pseudopotentials (lmaxx) =  4

     IMPORTANT: XC functional enforced from input :
     Exchange-correlation= SCAN
                           (   0   0   0   0   0 263 267)
     Any further DFT definition will be discarded
     Please, verify this is what you really want


     gamma-point specific algorithms are used

     R & G space division:  proc/nbgrp/npool/nimage =     120
     Subspace diagonalization in iterative solution of the eigenvalue problem:
     one sub-group per band group will be used
     ELPA distributed-memory algorithm (size of sub-group: 10* 10 procs)


     Parallelization info
     --------------------
     sticks:   dense  smooth     PW     G-vecs:    dense   smooth      PW
     Min         223     223     55                53054    53054    6618
     Max         226     226     58                53096    53096    6642
     Sum       27001   27001   6747              6368777  6368777  796049

     Using Slab Decomposition



     bravais-lattice index     =            0
     lattice parameter (alat)  =      27.1743  a.u.
     unit-cell volume          =   40863.0649 (a.u.)^3
     number of atoms/cell      =          493
     number of atomic types    =            5
     number of electrons       =      2104.00
     number of Kohn-Sham states=         1052
     kinetic-energy cutoff     =     110.0000  Ry
     charge density cutoff     =     440.0000  Ry
     scf convergence threshold =      1.0E-06
     mixing beta               =       0.5000
     number of iterations used =            8  plain     mixing
     Exchange-correlation= SCAN
                           (   0   0   0   0   0 263 267)

     celldm(1)=  27.174262  celldm(2)=   0.000000  celldm(3)=   0.000000
     celldm(4)=   0.000000  celldm(5)=   0.000000  celldm(6)=   0.000000

     crystal axes: (cart. coord. in units of alat)
               a(1) = (   1.000000   0.000000   0.000000 )  
               a(2) = (   0.263718   1.045271   0.000000 )  
               a(3) = (  -1.114529  -1.155389   1.948179 )  

     reciprocal axes: (cart. coord. in units 2 pi/alat)
               b(1) = (  1.000000 -0.252296  0.422460 )  
               b(2) = ( -0.000000  0.956690  0.567375 )  
               b(3) = (  0.000000  0.000000  0.513300 )  


     PseudoPot. # 1 for K  read from file:
     /scratch/zhouwq/DFT-feldspar-surface/script-dft/K_ONCV_PBE_sr.upf
     MD5 check sum: 1b7a13238029e3acac828725779bbc07
     Pseudo is Norm-conserving, Zval =  9.0
     Generated using ONCVPSP code by D. R. Hamann
     Using radial grid of 2222 points,  6 beta functions with: 
                l(1) =   0
                l(2) =   0
                l(3) =   1
                l(4) =   1
                l(5) =   2
                l(6) =   2

     PseudoPot. # 2 for Al read from file:
     /scratch/zhouwq/DFT-feldspar-surface/script-dft/Al_ONCV_PBE_sr.upf
     MD5 check sum: f1d308f5052db2acb2ab62005e7ebd82
     Pseudo is Norm-conserving, Zval = 11.0
     Generated using ONCVPSP code by D. R. Hamann
     Using radial grid of 1876 points,  4 beta functions with: 
                l(1) =   0
                l(2) =   0
                l(3) =   1
                l(4) =   1

     PseudoPot. # 3 for Si read from file:
     /scratch/zhouwq/DFT-feldspar-surface/script-dft/Si_ONCV_PBE_sr.upf
     MD5 check sum: 8553c464762ac42b85b1eed164b4d029
     Pseudo is Norm-conserving, Zval =  4.0
     Generated using ONCVPSP code by D. R. Hamann
     Using radial grid of 1510 points,  4 beta functions with: 
                l(1) =   0
                l(2) =   0
                l(3) =   1
                l(4) =   1

     PseudoPot. # 4 for O  read from file:
     /scratch/zhouwq/DFT-feldspar-surface/script-dft/O_ONCV_PBE_sr.upf
     MD5 check sum: 503208cc3dd01d9a06cc7045986f7d49
     Pseudo is Norm-conserving, Zval =  6.0
     Generated using ONCVPSP code by D. R. Hamann
     Using radial grid of  936 points,  4 beta functions with: 
                l(1) =   0
                l(2) =   0
                l(3) =   1
                l(4) =   1

     PseudoPot. # 5 for H  read from file:
     /scratch/zhouwq/DFT-feldspar-surface/script-dft/H_ONCV_PBE_sr.upf
     MD5 check sum: 8975ef619c0c80d0ef0fa21f3286b90d
     Pseudo is Norm-conserving, Zval =  1.0
     Generated using ONCVPSP code by D. R. Hamann
     Using radial grid of 1166 points,  2 beta functions with: 
                l(1) =   0
                l(2) =   0

     atomic species   valence    mass     pseudopotential
     K                 9.00    39.09830     K ( 1.00)
     Al               11.00    26.98154     Al( 1.00)
     Si                4.00    28.08500     Si( 1.00)
     O                 6.00    15.99900     O ( 1.00)
     H                 1.00     1.00800     H ( 1.00)

     No symmetry found



   Cartesian axes

     site n.     atom                  positions (alat units)
         1        K      tau(   1) = (  -0.9401555  -0.9065337   2.7519533  )
         2        Al     tau(   2) = (  -1.2013219  -1.6452679   2.7968227  )
         3        Si     tau(   3) = (  -1.0674793  -0.8387140   2.9630914  )
         4        Si     tau(   4) = (  -1.4751587  -1.6459355   2.8013258  )
         5        Si     tau(   5) = (  -1.2049213  -0.8136281   2.8039809  )
         6        Si     tau(   6) = (  -1.3381048  -1.6790562   2.9651064  )
         7        Si     tau(   7) = (  -0.9749872  -0.7054097   2.6162543  )
         8        Si     tau(   8) = (  -1.3424013  -1.5102626   2.6957901  )
         9        O      tau(   9) = (  -1.5804143  -1.6145760   2.8138553  )
        10        O      tau(  10) = (  -1.2146091  -0.8856862   2.7183890  )
        11        O      tau(  11) = (  -1.3010211  -0.8252416   2.8669683  )
        12        O      tau(  12) = (  -1.2443642  -1.6760961   2.9065998  )
        13        O      tau(  13) = (  -0.9110635  -0.6406060   2.5446949  )
        14        O      tau(  14) = (  -1.4267078  -1.5731270   2.7338909  )
        15        O      tau(  15) = (  -1.3320948  -1.5050535   2.5854619  )
        16        O      tau(  16) = (  -0.9557159  -0.7009593   2.7231648  )
        17        O      tau(  17) = (  -1.3454489  -1.7823067   3.0129036  )
        18        O      tau(  18) = (  -1.1997877  -0.7085072   2.7583601  )
        19        O      tau(  19) = (  -1.0805587  -0.6658204   2.5977856  )
        20        O      tau(  20) = (  -1.2460848  -1.5466463   2.7467322  )
        21        O      tau(  21) = (  -1.1034662  -0.8223529   2.8576560  )
        22        O      tau(  22) = (  -1.4262992  -1.6480296   2.9023249  )
        23        Al     tau(  23) = (  -1.0691286  -1.1387723   2.8013146  )
        24        Si     tau(  24) = (  -1.2098693  -0.9994658   2.7061322  )
        25        Si     tau(  25) = (  -1.1159415  -1.2259653   2.6245369  )
        26        O      tau(  26) = (  -1.4515468  -1.1058060   2.8262513  )
        27        O      tau(  27) = (  -0.9623631  -0.8148043   2.5844266  )
        28        O      tau(  28) = (  -1.0995145  -1.3354278   2.5889408  )
        29        O      tau(  29) = (  -1.3000408  -1.0592064   2.7427134  )
        30        O      tau(  30) = (  -1.0493961  -1.1501296   2.5777861  )
        31        O      tau(  31) = (  -1.1008634  -1.2353001   2.7339856  )
        32        O      tau(  32) = (  -1.2028691  -1.0194650   2.5969506  )
        33        O      tau(  33) = (  -1.1237831  -1.0396194   2.7576476  )
        34        O      tau(  34) = (  -1.2293644  -1.2195203   2.6023666  )
        35        O      tau(  35) = (  -1.8248326  -1.9197143   3.6466797  )
        36        Al     tau(  36) = (  -1.6085102  -1.0979465   3.4479877  )
        37        Si     tau(  37) = (  -1.4787327  -1.2366880   3.5455413  )
        38        Si     tau(  38) = (  -1.8215351  -2.0298995   3.6303873  )
        39        O      tau(  39) = (  -1.2241559  -1.1377560   3.4353969  )
        40        O      tau(  40) = (  -1.7126233  -1.4145234   3.6578344  )
        41        O      tau(  41) = (  -1.3861160  -1.1802725   3.5063607  )
        42        O      tau(  42) = (  -1.8828599  -2.0909078   3.7045851  )
        43        O      tau(  43) = (  -1.8572467  -2.0531136   3.5283584  )
        44        O      tau(  44) = (  -1.5001200  -1.2382083   3.6575227  )
        45        O      tau(  45) = (  -1.5768085  -1.1986506   3.5031267  )
        46        O      tau(  46) = (  -1.7132227  -2.0674858   3.6339775  )
        47        K      tau(  47) = (  -1.7200104  -1.2982034   3.4914821  )
        48        K      tau(  48) = (  -1.3418323  -1.6799242   3.2253664  )
        49        K      tau(  49) = (  -1.8550612  -1.8551921   3.4799545  )
        50        Al     tau(  50) = (  -1.7307992  -1.6286308   3.4544055  )
        51        Si     tau(  51) = (  -1.6125806  -1.3916635   3.2768206  )
        52        Si     tau(  52) = (  -1.4506126  -1.6298860   3.4334208  )
        53        Si     tau(  53) = (  -1.4720733  -1.4221498   3.4323243  )
        54        Si     tau(  54) = (  -1.5950408  -1.5939264   3.2759022  )
        55        Si     tau(  55) = (  -1.6924241  -1.5255706   3.6340666  )
        56        Si     tau(  56) = (  -1.5868372  -1.7629832   3.5516085  )
        57        O      tau(  57) = (  -1.3432425  -1.6496621   3.4204905  )
        58        O      tau(  58) = (  -1.4681195  -1.3499041   3.5215954  )
        59        O      tau(  59) = (  -1.5762950  -1.8662600   3.5146098  )
        60        O      tau(  60) = (  -1.6119543  -1.6667709   3.1897927  )
        61        O      tau(  61) = (  -1.3892911  -1.4145249   3.3575420  )
        62        O      tau(  62) = (  -1.6741106  -1.6044672   3.3521873  )
        63        O      tau(  63) = (  -1.7315982  -1.6002942   3.7081364  )
        64        O      tau(  64) = (  -1.5030563  -1.7061904   3.5029263  )
        65        O      tau(  65) = (  -1.5960621  -1.7617148   3.6666179  )
        66        O      tau(  66) = (  -1.7215603  -1.5360050   3.5285977  )
        67        O      tau(  67) = (  -1.6016788  -1.4914093   3.2295801  )
        68        O      tau(  68) = (  -1.4692054  -1.5252687   3.4767038  )
        69        O      tau(  69) = (  -1.5780933  -1.5360182   3.6467075  )
        70        O      tau(  70) = (  -1.6862244  -1.7220268   3.5188513  )
        71        O      tau(  71) = (  -1.5745178  -1.4040463   3.3812709  )
        72        O      tau(  72) = (  -1.4966884  -1.6232996   3.3265883  )
        73        K      tau(  73) = (  -1.2180290  -1.1733883   3.2322352  )
        74        Al     tau(  74) = (  -1.3506789  -0.8386850   2.9784820  )
        75        Al     tau(  75) = (  -1.4500448  -1.9133328   3.2612074  )
        76        Si     tau(  76) = (  -1.3306925  -1.1005891   3.4448928  )
        77        Si     tau(  77) = (  -1.7327530  -1.9160681   3.2735755  )
        78        Si     tau(  78) = (  -1.4652567  -1.0783449   3.2785183  )
        79        Si     tau(  79) = (  -1.5917217  -1.9408269   3.4307268  )
        80        Si     tau(  80) = (  -1.2028042  -0.9756101   3.0748167  )
        81        Si     tau(  81) = (  -1.5896534  -1.7805057   3.1655685  )
        82        O      tau(  82) = (  -0.9614410  -0.8664783   2.9514024  )
        83        O      tau(  83) = (  -1.8410142  -1.8897188   3.2882036  )
        84        O      tau(  84) = (  -1.4763732  -1.1485311   3.1944461  )
        85        O      tau(  85) = (  -1.5558612  -1.0685265   3.3448622  )
        86        O      tau(  86) = (  -1.5046801  -1.9331535   3.3662198  )
        87        O      tau(  87) = (  -1.1284412  -0.9180405   3.0109944  )
        88        O      tau(  88) = (  -1.6815901  -1.8392158   3.2066194  )
        89        O      tau(  89) = (  -1.5990778  -1.7912269   3.0531140  )
        90        O      tau(  90) = (  -1.1948090  -0.9645533   3.1872044  )
        91        O      tau(  91) = (  -1.6038575  -2.0406480   3.4861386  )
        92        O      tau(  92) = (  -1.4504245  -0.9747985   3.2320292  )
        93        O      tau(  93) = (  -1.3031939  -0.9395450   3.0419704  )
        94        O      tau(  94) = (  -1.4954140  -1.8188688   3.2053113  )
        95        O      tau(  95) = (  -1.3739810  -1.1042384   3.3379712  )
        96        O      tau(  96) = (  -1.6861093  -1.9090422   3.3802244  )
        97        K      tau(  97) = (  -1.4879013  -1.0605623   3.0255000  )
        98        K      tau(  98) = (  -1.0818211  -1.4407349   2.7644106  )
        99        K      tau(  99) = (  -1.5960043  -1.5909845   3.0190097  )
       100        Al     tau( 100) = (  -1.3216861  -1.3941792   3.2607287  )
       101        Al     tau( 101) = (  -1.4821354  -1.3552841   2.9860577  )
       102        Si     tau( 102) = (  -1.3461054  -1.1342488   2.8122411  )
       103        Si     tau( 103) = (  -1.1958277  -1.3679043   2.9606312  )
       104        Si     tau( 104) = (  -1.1971831  -1.1606784   2.9694314  )
       105        Si     tau( 105) = (  -1.3386602  -1.3304608   2.8083336  )
       106        Si     tau( 106) = (  -1.4639826  -1.2627445   3.1685353  )
       107        Si     tau( 107) = (  -1.3399563  -1.4901104   3.0767259  )
       108        O      tau( 108) = (  -1.7162147  -1.3566631   3.2790917  )
       109        O      tau( 109) = (  -1.0949465  -1.4127165   2.9535342  )
       110        O      tau( 110) = (  -1.1883648  -1.0915578   3.0632000  )
       111        O      tau( 111) = (  -1.3419127  -1.6046243   3.0549843  )
       112        O      tau( 112) = (  -1.3505120  -1.4030634   2.7250963  )
       113        O      tau( 113) = (  -1.1019008  -1.1447563   2.9167916  )
       114        O      tau( 114) = (  -1.4188053  -1.3241274   2.8832662  )
       115        O      tau( 115) = (  -1.5494454  -1.3217467   3.2170672  )
       116        O      tau( 116) = (  -1.2584783  -1.4390853   3.0209301  )
       117        O      tau( 117) = (  -1.3292775  -1.4860959   3.1900432  )
       118        O      tau( 118) = (  -1.4690527  -1.2607195   3.0599382  )
       119        O      tau( 119) = (  -1.3279430  -1.2316532   2.7528885  )
       120        O      tau( 120) = (  -1.1974860  -1.2652940   3.0051832  )
       121        O      tau( 121) = (  -1.3635416  -1.2934065   3.2110557  )
       122        O      tau( 122) = (  -1.4409358  -1.4545459   3.0398664  )
       123        O      tau( 123) = (  -1.2957192  -1.1428560   2.9161236  )
       124        O      tau( 124) = (  -1.2377070  -1.3510305   2.8605615  )
       125        H      tau( 125) = (  -1.6708246  -1.3897691   3.7039728  )
       126        H      tau( 126) = (  -1.9496262  -2.1114428   3.7058264  )
       127        H      tau( 127) = (  -1.4669723  -1.1995438   3.7038448  )
       128        H      tau( 128) = (  -1.6860359  -2.0486012   3.5770295  )
       129        H      tau( 129) = (  -1.8576351  -1.9060870   3.7049302  )
       130        H      tau( 130) = (  -1.7979205  -1.6055783   3.7000152  )
       131        H      tau( 131) = (  -1.6498001  -1.7172000   3.6709874  )
       132        H      tau( 132) = (  -1.5465616  -1.5163891   3.5870821  )
       133        H      tau( 133) = (  -0.8465406  -0.6275694   2.5537400  )
       134        H      tau( 134) = (  -1.0826868  -0.5143675   2.5511684  )
       135        H      tau( 135) = (  -1.1285321  -0.6960139   2.6382242  )
       136        H      tau( 136) = (  -0.9339051  -0.8289837   2.5269219  )
       137        H      tau( 137) = (  -1.1494576  -1.3441142   2.5423460  )
       138        H      tau( 138) = (  -1.0786461  -1.0892194   2.5845714  )
       139        H      tau( 139) = (  -1.2259282  -1.0781787   2.5770903  )
       140        H      tau( 140) = (  -1.2585016  -1.2365146   2.6628826  )
       141        K      tau( 141) = (  -0.4345684  -0.8998150   2.7630858  )
       142        Al     tau( 142) = (  -0.6970342  -1.6435187   2.7983534  )
       143        Si     tau( 143) = (  -0.5719253  -0.8383796   2.9691141  )
       144        Si     tau( 144) = (  -0.9713473  -1.6558223   2.7994444  )
       145        Si     tau( 145) = (  -0.7098002  -0.8137759   2.8045597  )
       146        Si     tau( 146) = (  -0.8280989  -1.6782691   2.9647223  )
       147        Si     tau( 147) = (  -0.4840639  -0.6956163   2.6149796  )
       148        Si     tau( 148) = (  -0.8390428  -1.5138088   2.6984786  )
       149        O      tau( 149) = (  -1.0771500  -1.6272034   2.8159315  )
       150        O      tau( 150) = (  -0.7236771  -0.8854910   2.7221295  )
       151        O      tau( 151) = (  -0.7972123  -0.7894810   2.8699685  )
       152        O      tau( 152) = (  -0.7295896  -1.6844193   2.9110250  )
       153        O      tau( 153) = (  -0.4183883  -0.6346547   2.5491813  )
       154        O      tau( 154) = (  -0.9337731  -1.5783071   2.7198195  )
       155        O      tau( 155) = (  -0.8197856  -1.5188176   2.5863358  )
       156        O      tau( 156) = (  -0.4577897  -0.6884238   2.7245508  )
       157        O      tau( 157) = (  -0.8555277  -1.7812339   3.0073207  )
       158        O      tau( 158) = (  -0.6894218  -0.7139714   2.7482796  )
       159        O      tau( 159) = (  -0.5867876  -0.6683281   2.5905050  )
       160        O      tau( 160) = (  -0.7523406  -1.5409186   2.7645608  )
       161        O      tau( 161) = (  -0.6155521  -0.8392966   2.8616637  )
       162        O      tau( 162) = (  -0.9162879  -1.6506763   2.8992691  )
       163        Al     tau( 163) = (  -0.5647035  -1.1365236   2.8006690  )
       164        Si     tau( 164) = (  -0.6994271  -0.9961702   2.7023360  )
       165        Si     tau( 165) = (  -0.5884550  -1.2325900   2.6250935  )
       166        O      tau( 166) = (  -0.9509504  -1.1033794   2.8016987  )
       167        O      tau( 167) = (  -0.4626734  -0.8088904   2.5945349  )
       168        O      tau( 168) = (  -0.5716117  -1.3465859   2.5954812  )
       169        O      tau( 169) = (  -0.7977039  -1.0505677   2.7324159  )
       170        O      tau( 170) = (  -0.5230517  -1.1666683   2.5594955  )
       171        O      tau( 171) = (  -0.5793128  -1.2369320   2.7365627  )
       172        O      tau( 172) = (  -0.6938455  -1.0024201   2.5900263  )
       173        O      tau( 173) = (  -0.6088657  -1.0414580   2.7430752  )
       174        O      tau( 174) = (  -0.6902517  -1.1999043   2.5882005  )
       175        O      tau( 175) = (  -1.3489186  -1.9287881   3.6530085  )
       176        Al     tau( 176) = (  -1.1067881  -1.1067778   3.4529416  )
       177        Si     tau( 177) = (  -0.9551325  -1.2390039   3.5458809  )
       178        Si     tau( 178) = (  -1.3246490  -2.0363702   3.6216372  )
       179        O      tau( 179) = (  -1.7225521  -1.1208203   3.4117014  )
       180        O      tau( 180) = (  -1.2012121  -1.4182914   3.6681764  )
       181        O      tau( 181) = (  -0.8710051  -1.1881271   3.4889161  )
       182        O      tau( 182) = (  -1.3725765  -2.1159662   3.6917494  )
       183        O      tau( 183) = (  -1.3519847  -2.0411904   3.5116708  )
       184        O      tau( 184) = (  -0.9461871  -1.2280421   3.6569994  )
       185        O      tau( 185) = (  -1.0499939  -1.2001639   3.5056538  )
       186        O      tau( 186) = (  -1.2143329  -2.0549456   3.6402173  )
       187        K      tau( 187) = (  -1.2508462  -1.3261700   3.5057873  )
       188        K      tau( 188) = (  -0.8233562  -1.6812476   3.2276931  )
       189        K      tau( 189) = (  -1.3611344  -1.8547177   3.4975939  )
       190        Al     tau( 190) = (  -1.2300362  -1.6329228   3.4559919  )
       191        Si     tau( 191) = (  -1.1015323  -1.3906119   3.2863222  )
       192        Si     tau( 192) = (  -0.9536693  -1.6305719   3.4384972  )
       193        Si     tau( 193) = (  -0.9529515  -1.4192394   3.4378738  )
       194        Si     tau( 194) = (  -1.0948491  -1.6000603   3.2871738  )
       195        Si     tau( 195) = (  -1.1814949  -1.5270475   3.6375844  )
       196        Si     tau( 196) = (  -1.0928669  -1.7623036   3.5542079  )
       197        O      tau( 197) = (  -1.8469278  -1.6549881   3.4277155  )
       198        O      tau( 198) = (  -0.9441704  -1.3497145   3.5292546  )
       199        O      tau( 199) = (  -1.0759066  -1.8744907   3.5285922  )
       200        O      tau( 200) = (  -1.0943517  -1.6680190   3.1961660  )
       201        O      tau( 201) = (  -0.8624394  -1.4200404   3.3736117  )
       202        O      tau( 202) = (  -1.1856462  -1.6170484   3.3453687  )
       203        O      tau( 203) = (  -1.2434290  -1.5916729   3.7020859  )
       204        O      tau( 204) = (  -1.0059073  -1.7040964   3.5023140  )
       205        O      tau( 205) = (  -1.0671352  -1.7455683   3.6641131  )
       206        O      tau( 206) = (  -1.2188988  -1.5385828   3.5321935  )
       207        O      tau( 207) = (  -1.0865677  -1.4968687   3.2473864  )
       208        O      tau( 208) = (  -0.9753297  -1.5251266   3.4836727  )
       209        O      tau( 209) = (  -1.0684920  -1.5525090   3.6433845  )
       210        O      tau( 210) = (  -1.1931741  -1.7298402   3.5113202  )
       211        O      tau( 211) = (  -1.0493846  -1.3879852   3.3878724  )
       212        O      tau( 212) = (  -0.9983786  -1.6327764   3.3364572  )
       213        K      tau( 213) = (  -0.7091110  -1.1785012   3.2270419  )
       214        Al     tau( 214) = (  -0.8463007  -0.8340595   2.9791110  )
       215        Al     tau( 215) = (  -0.9577716  -1.9177099   3.2628772  )
       216        Si     tau( 216) = (  -0.8294091  -1.1002536   3.4272256  )
       217        Si     tau( 217) = (  -1.2298025  -1.9061218   3.2785462  )
       218        Si     tau( 218) = (  -0.9749514  -1.0735339   3.2721283  )
       219        Si     tau( 219) = (  -1.0930777  -1.9364942   3.4369832  )
       220        Si     tau( 220) = (  -0.7142733  -0.9720296   3.0742378  )
       221        Si     tau( 221) = (  -1.0891982  -1.7771626   3.1679007  )
       222        O      tau( 222) = (  -1.4660918  -0.8660961   2.9564454  )
       223        O      tau( 223) = (  -1.3355423  -1.8775549   3.2867675  )
       224        O      tau( 224) = (  -0.9752846  -1.1462078   3.1871710  )
       225        O      tau( 225) = (  -1.0615287  -1.0987135   3.3411161  )
       226        O      tau( 226) = (  -1.0045746  -1.9360200   3.3721144  )
       227        O      tau( 227) = (  -0.6173516  -0.9233254   3.0277487  )
       228        O      tau( 228) = (  -1.1717102  -1.8403550   3.2111113  )
       229        O      tau( 229) = (  -1.0953439  -1.7859951   3.0554129  )
       230        O      tau( 230) = (  -0.7114174  -0.9592261   3.1817328  )
       231        O      tau( 231) = (  -1.1147066  -2.0451281   3.4726906  )
       232        O      tau( 232) = (  -0.9734974  -0.9669818   3.2354023  )
       233        O      tau( 233) = (  -0.7999190  -0.9343058   3.0213364  )
       234        O      tau( 234) = (  -0.9939882  -1.8137959   3.2167611  )
       235        O      tau( 235) = (  -0.8780496  -1.0957457   3.3266050  )
       236        O      tau( 236) = (  -1.1851860  -1.8998158   3.3850615  )
       237        K      tau( 237) = (  -0.9523610  -1.0673082   3.0181692  )
       238        K      tau( 238) = (  -0.5796609  -1.4337019   2.7561948  )
       239        K      tau( 239) = (  -1.0946452  -1.6050438   3.0113840  )
       240        Al     tau( 240) = (  -0.8246897  -1.3897238   3.2594095  )
       241        Al     tau( 241) = (  -0.9846653  -1.3671600   2.9815713  )
       242        Si     tau( 242) = (  -0.8447019  -1.1310210   2.7948522  )
       243        Si     tau( 243) = (  -0.7004752  -1.3663194   2.9609373  )
       244        Si     tau( 244) = (  -0.7131249  -1.1587716   2.9648838  )
       245        Si     tau( 245) = (  -0.8466071  -1.3370101   2.8067751  )
       246        Si     tau( 246) = (  -0.9719759  -1.2571593   3.1671493  )
       247        Si     tau( 247) = (  -0.8350418  -1.4981765   3.0719668  )
       248        O      tau( 248) = (  -1.2097527  -1.3666484   3.2968257  )
       249        O      tau( 249) = (  -1.5942597  -1.3899190   2.9444112  )
       250        O      tau( 250) = (  -0.7051523  -1.0875263   3.0541215  )
       251        O      tau( 251) = (  -0.8251000  -1.6092291   3.0546113  )
       252        O      tau( 252) = (  -0.8648171  -1.4063296   2.7215339  )
       253        O      tau( 253) = (  -0.6218730  -1.1449084   2.9080470  )
       254        O      tau( 254) = (  -0.9308813  -1.3332907   2.8752564  )
       255        O      tau( 255) = (  -1.0551829  -1.3166544   3.2202065  )
       256        O      tau( 256) = (  -0.7414685  -1.4469140   3.0273591  )
       257        O      tau( 257) = (  -0.8322077  -1.4820694   3.1822226  )
       258        O      tau( 258) = (  -0.9833117  -1.2672049   3.0572107  )
       259        O      tau( 259) = (  -0.8254396  -1.2359605   2.7567180  )
       260        O      tau( 260) = (  -0.7243416  -1.2634708   3.0053502  )
       261        O      tau( 261) = (  -0.8740623  -1.2910553   3.2110056  )
       262        O      tau( 262) = (  -0.9337537  -1.4670119   3.0314224  )
       263        O      tau( 263) = (  -0.8039169  -1.1295521   2.9020188  )
       264        O      tau( 264) = (  -0.7510526  -1.3676145   2.8589696  )
       265        H      tau( 265) = (  -1.2277427  -1.4069895   3.7294439  )
       266        H      tau( 266) = (  -1.4162913  -2.1636913   3.6674417  )
       267        H      tau( 267) = (  -0.9106457  -1.1784510   3.6898624  )
       268        H      tau( 268) = (  -1.1815023  -2.0546748   3.5798015  )
       269        H      tau( 269) = (  -1.3339217  -1.9166734   3.7222801  )
       270        H      tau( 270) = (  -1.3128390  -1.5955738   3.6990912  )
       271        H      tau( 271) = (  -1.0688990  -1.6785051   3.6761250  )
       272        H      tau( 272) = (  -1.0367191  -1.5282513   3.5868873  )
       273        H      tau( 273) = (  -0.4204453  -0.5715125   2.5364903  )
       274        H      tau( 274) = (  -0.5651665  -0.5374594   2.5693589  )
       275        H      tau( 275) = (  -0.6224868  -0.6831720   2.6442524  )
       276        H      tau( 276) = (  -0.4389280  -0.8227423   2.5355774  )
       277        H      tau( 277) = (  -0.6031683  -1.3608144   2.5413218  )
       278        H      tau( 278) = (  -0.4581606  -1.1652644   2.5808587  )
       279        H      tau( 279) = (  -0.6815071  -1.0659074   2.5748082  )
       280        H      tau( 280) = (  -0.7434494  -1.1971526   2.6305261  )
       281        O      tau( 281) = (  -1.4903885  -2.2048197   4.2490789  )
       282        H      tau( 282) = (  -1.5056523  -2.2669419   4.2759916  )
       283        H      tau( 283) = (  -1.5403602  -2.1947404   4.2045602  )
       284        O      tau( 284) = (  -1.9248305  -2.0578539   4.1058321  )
       285        H      tau( 285) = (  -1.9796089  -2.0964332   4.0933860  )
       286        H      tau( 286) = (  -1.8823357  -2.0771003   4.1558780  )
       287        O      tau( 287) = (  -1.4703473  -1.8596457   4.3089659  )
       288        H      tau( 288) = (  -1.4092816  -1.8330345   4.3213675  )
       289        H      tau( 289) = (  -1.4821107  -1.9108919   4.3501393  )
       290        O      tau( 290) = (  -1.3739743  -1.5487860   4.2229288  )
       291        H      tau( 291) = (  -1.3522097  -1.5452918   4.1601418  )
       292        H      tau( 292) = (  -1.4378458  -1.5613820   4.2359705  )
       293        O      tau( 293) = (  -1.4246879  -1.9129487   4.1303513  )
       294        H      tau( 294) = (  -1.4463266  -1.8875596   4.1885184  )
       295        H      tau( 295) = (  -1.4081785  -1.8577086   4.0950948  )
       296        O      tau( 296) = (  -2.1894932  -1.5709837   4.2993920  )
       297        H      tau( 297) = (  -2.1548963  -1.5332129   4.2553242  )
       298        H      tau( 298) = (  -1.2535245  -1.5674506   4.2811571  )
       299        O      tau( 299) = (  -1.5600098  -1.7048032   4.3677397  )
       300        H      tau( 300) = (  -1.6268515  -1.7077353   4.3582382  )
       301        H      tau( 301) = (  -1.5348420  -1.7576059   4.3395746  )
       302        O      tau( 302) = (  -1.4107652  -1.5979120   3.7525549  )
       303        H      tau( 303) = (  -1.4261789  -1.6502465   3.7922198  )
       304        H      tau( 304) = (  -1.4642035  -1.5962240   3.7146155  )
       305        O      tau( 305) = (  -1.4576552  -1.7246576   3.8747001  )
       306        H      tau( 306) = (  -1.5199067  -1.7039812   3.8930074  )
       307        H      tau( 307) = (  -1.4641823  -1.7866459   3.8498024  )
       308        O      tau( 308) = (  -1.6309090  -1.6624073   3.8989800  )
       309        H      tau( 309) = (  -1.6475966  -1.6290528   3.8388982  )
       310        H      tau( 310) = (  -1.6794775  -1.7103576   3.9118825  )
       311        O      tau( 311) = (  -2.0848035  -1.4559531   4.1786773  )
       312        H      tau( 312) = (  -2.3136997  -2.4479722   4.2039480  )
       313        H      tau( 313) = (  -2.0394841  -1.4821806   4.1290655  )
       314        O      tau( 314) = (  -1.9167112  -1.5533474   3.7631307  )
       315        H      tau( 315) = (  -0.9669320  -1.5456228   3.7246235  )
       316        H      tau( 316) = (  -1.8854922  -1.4924207   3.7734449  )
       317        O      tau( 317) = (  -1.9565982  -2.2960501   4.1560562  )
       318        H      tau( 318) = (  -2.0117718  -2.2547112   4.1437882  )
       319        H      tau( 319) = (  -1.9291061  -2.2967117   4.0931912  )
       320        O      tau( 320) = (  -2.3147904  -2.1977345   4.1955652  )
       321        H      tau( 321) = (  -1.3111268  -2.1283789   4.1930382  )
       322        H      tau( 322) = (  -1.3815933  -2.2084724   4.2134050  )
       323        O      tau( 323) = (  -1.4417528  -1.4715808   3.9083480  )
       324        H      tau( 324) = (  -1.4943003  -1.4559447   3.9481966  )
       325        H      tau( 325) = (  -1.4573194  -1.5282288   3.8695124  )
       326        O      tau( 326) = (  -1.1924331  -1.5680917   3.8922282  )
       327        H      tau( 327) = (  -1.2035543  -1.6043712   3.8370112  )
       328        H      tau( 328) = (  -1.2120087  -1.5036873   3.8818805  )
       329        O      tau( 329) = (  -2.1262159  -2.4321592   4.1631809  )
       330        H      tau( 330) = (  -1.8239013  -1.4415813   4.1852788  )
       331        H      tau( 331) = (  -2.0794380  -2.3937455   4.1369696  )
       332        O      tau( 332) = (  -1.5269163  -2.0408782   4.3721593  )
       333        H      tau( 333) = (  -1.4959964  -2.0855783   4.3344314  )
       334        H      tau( 334) = (  -1.5886290  -2.0555149   4.3861250  )
       335        O      tau( 335) = (  -1.6420549  -2.0043291   3.9003938  )
       336        H      tau( 336) = (  -1.6308466  -1.9727958   3.9597521  )
       337        H      tau( 337) = (  -1.5867956  -2.0427863   3.8907364  )
       338        O      tau( 338) = (  -1.4006334  -1.7417608   4.0434570  )
       339        H      tau( 339) = (  -1.3440478  -1.7071460   4.0601890  )
       340        H      tau( 340) = (  -1.4133240  -1.7357594   3.9767402  )
       341        O      tau( 341) = (  -2.1095893  -1.9267168   4.1840932  )
       342        H      tau( 342) = (  -2.0455327  -1.9269347   4.1641160  )
       343        H      tau( 343) = (  -2.1185119  -1.8631048   4.1971516  )
       344        O      tau( 344) = (  -1.4018913  -2.2576214   4.0376013  )
       345        H      tau( 345) = (  -1.3707586  -2.2254589   4.0893950  )
       346        H      tau( 346) = (  -1.3491835  -2.2821246   4.0023226  )
       347        O      tau( 347) = (  -1.7264978  -1.8132770   4.3148272  )
       348        H      tau( 348) = (  -1.7913491  -1.7901675   4.3097397  )
       349        H      tau( 349) = (  -1.7137250  -1.8240048   4.2489787  )
       350        O      tau( 350) = (  -1.9305543  -2.3156335   3.9607651  )
       351        H      tau( 351) = (  -1.6469949  -1.3347538   3.9505177  )
       352        H      tau( 352) = (  -1.9105719  -2.2809889   3.9050305  )
       353        O      tau( 353) = (  -1.0042661  -1.3093681   3.9442779  )
       354        H      tau( 354) = (  -1.9757130  -1.3662550   3.9618450  )
       355        H      tau( 355) = (  -1.0121750  -1.3079759   3.8760304  )
       356        O      tau( 356) = (  -1.5906881  -1.9497385   4.0705311  )
       357        H      tau( 357) = (  -1.5221347  -1.9486921   4.0855209  )
       358        H      tau( 358) = (  -1.6106501  -2.0100818   4.0964307  )
       359        O      tau( 359) = (  -1.2687913  -2.0551655   3.9509964  )
       360        H      tau( 360) = (  -1.2782588  -2.0490115   4.0191214  )
       361        H      tau( 361) = (  -1.3212338  -2.0922978   3.9280858  )
       362        O      tau( 362) = (  -1.2133085  -1.1957343   3.6429002  )
       363        H      tau( 363) = (  -1.2714289  -1.1940988   3.6843407  )
       364        H      tau( 364) = (  -1.1708333  -1.2333871   3.6767262  )
       365        O      tau( 365) = (  -1.2741931  -2.0244294   4.1355780  )
       366        H      tau( 366) = (  -1.3301393  -1.9819461   4.1379937  )
       367        H      tau( 367) = (  -2.2217299  -1.9805315   4.1604757  )
       368        O      tau( 368) = (  -2.0953657  -1.6986623   3.9841878  )
       369        H      tau( 369) = (  -2.0274812  -1.6891932   3.9746139  )
       370        H      tau( 370) = (  -1.1230656  -1.6461358   3.9486530  )
       371        O      tau( 371) = (  -1.5464639  -1.5306808   4.3045185  )
       372        H      tau( 372) = (  -1.6090682  -1.5145721   4.2866009  )
       373        H      tau( 373) = (  -1.5506600  -1.5967402   4.3188905  )
       374        O      tau( 374) = (  -1.7259066  -1.5317908   4.1964224  )
       375        H      tau( 375) = (  -1.6914182  -1.5059626   4.1421239  )
       376        H      tau( 376) = (  -1.7487212  -1.5878485   4.1619564  )
       377        O      tau( 377) = (  -2.2594955  -2.3672767   4.2866342  )
       378        H      tau( 378) = (  -2.2702283  -2.3014080   4.2617143  )
       379        H      tau( 379) = (  -2.2099455  -2.3851088   4.2435795  )
       380        O      tau( 380) = (  -1.5337517  -2.2554636   3.8889218  )
       381        H      tau( 381) = (  -1.4703226  -2.2420562   3.9053366  )
       382        H      tau( 382) = (  -1.5714972  -2.2667866   3.9489647  )
       383        O      tau( 383) = (  -2.0814354  -2.0335389   3.9116821  )
       384        H      tau( 384) = (  -2.1443763  -2.0629042   3.9254975  )
       385        H      tau( 385) = (  -2.0905572  -1.9728070   3.9293994  )
       386        O      tau( 386) = (  -1.6333500  -2.1273252   4.1491429  )
       387        H      tau( 387) = (  -1.6943679  -2.1122365   4.1809205  )
       388        H      tau( 388) = (  -1.6465493  -2.1693718   4.1008002  )
       389        O      tau( 389) = (  -1.4399781  -2.0526717   3.8668796  )
       390        H      tau( 390) = (  -1.4302661  -2.0686460   3.8012872  )
       391        H      tau( 391) = (  -1.4635145  -1.9913167   3.8598494  )
       392        O      tau( 392) = (  -1.5329567  -1.8803704   3.8032799  )
       393        H      tau( 393) = (  -1.5841754  -1.9124067   3.8325916  )
       394        H      tau( 394) = (  -1.5526320  -1.8434136   3.7537850  )
       395        O      tau( 395) = (  -1.1179311  -1.8227674   3.8530085  )
       396        H      tau( 396) = (  -1.1155091  -1.7938583   3.7956319  )
       397        H      tau( 397) = (  -1.1145322  -1.7760302   3.9070343  )
       398        O      tau( 398) = (  -1.8153527  -2.0737741   3.9519705  )
       399        H      tau( 399) = (  -1.7524881  -2.0529751   3.9526662  )
       400        H      tau( 400) = (  -1.8457147  -2.0550410   4.0088239  )
       401        O      tau( 401) = (  -2.0819597  -2.1348848   4.0984624  )
       402        H      tau( 402) = (  -2.1328703  -2.0941270   4.1164302  )
       403        H      tau( 403) = (  -2.1026810  -2.1631763   4.0403232  )
       404        O      tau( 404) = (  -1.5397555  -2.3772802   4.3281416  )
       405        H      tau( 405) = (  -1.4877191  -2.4001201   4.3704394  )
       406        H      tau( 406) = (  -1.5310943  -2.4246471   4.2820811  )
       407        O      tau( 407) = (  -1.7704585  -1.8087577   3.9193579  )
       408        H      tau( 408) = (  -1.7866626  -1.8347477   3.9800521  )
       409        H      tau( 409) = (  -1.8106268  -1.8417777   3.8774331  )
       410        O      tau( 410) = (  -1.9102575  -1.7641335   4.2668519  )
       411        H      tau( 411) = (  -1.9730641  -1.7456883   4.2763423  )
       412        H      tau( 412) = (  -1.8868551  -1.7241444   4.2134829  )
       413        O      tau( 413) = (  -1.5927521  -1.3680884   3.7990551  )
       414        H      tau( 414) = (  -1.5391558  -1.4045064   3.8090409  )
       415        H      tau( 415) = (  -1.5669659  -1.3065748   3.7814380  )
       416        O      tau( 416) = (  -1.3211788  -1.5556533   4.0402842  )
       417        H      tau( 417) = (  -1.3601876  -1.5078998   4.0117629  )
       418        H      tau( 418) = (  -1.2672871  -1.5577373   3.9968732  )
       419        O      tau( 419) = (  -1.8942033  -1.9371618   3.8370613  )
       420        H      tau( 420) = (  -1.9536555  -1.9256308   3.8657608  )
       421        H      tau( 421) = (  -1.8688116  -1.9920142   3.8705254  )
       422        O      tau( 422) = (  -1.7950890  -2.0893237   4.2400004  )
       423        H      tau( 423) = (  -1.7977537  -2.1509014   4.2732196  )
       424        H      tau( 424) = (  -1.7619966  -2.0473219   4.2834114  )
       425        O      tau( 425) = (  -1.8549337  -1.3750416   3.7903273  )
       426        H      tau( 426) = (  -1.7989759  -1.3919363   3.7584384  )
       427        H      tau( 427) = (  -1.8894730  -1.3463056   3.7388174  )
       428        O      tau( 428) = (  -1.8562500  -2.2159971   3.8359314  )
       429        H      tau( 429) = (  -1.8705727  -2.1823739   3.7777476  )
       430        H      tau( 430) = (  -1.8408613  -2.1629305   3.8740433  )
       431        O      tau( 431) = (  -1.9332480  -1.8723399   4.0949056  )
       432        H      tau( 432) = (  -1.9296216  -1.9393113   4.0824428  )
       433        H      tau( 433) = (  -1.9105237  -1.8702237   4.1575757  )
       434        O      tau( 434) = (  -1.6719455  -2.2665672   4.0149134  )
       435        H      tau( 435) = (  -1.6877705  -2.3086925   4.0639852  )
       436        H      tau( 436) = (  -1.7268223  -2.2492055   3.9856350  )
       437        O      tau( 437) = (  -1.5517344  -1.6645072   4.1326223  )
       438        H      tau( 438) = (  -1.4938605  -1.6810456   4.1021473  )
       439        H      tau( 439) = (  -1.5296361  -1.6174309   4.1755491  )
       440        O      tau( 440) = (  -1.9159132  -1.6502771   3.9251023  )
       441        H      tau( 441) = (  -1.9156840  -1.6181951   3.8633450  )
       442        H      tau( 442) = (  -1.8684248  -1.6973158   3.9206827  )
       443        O      tau( 443) = (  -1.5722080  -1.4791039   4.0609071  )
       444        H      tau( 444) = (  -1.5657873  -1.5483872   4.0545950  )
       445        H      tau( 445) = (  -1.5248264  -1.4521428   4.1010897  )
       446        O      tau( 446) = (  -2.3830681  -2.4577390   4.4248325  )
       447        H      tau( 447) = (  -2.3325694  -2.4256898   4.3920252  )
       448        H      tau( 448) = (  -2.3931078  -2.5129268   4.3899044  )
       449        O      tau( 449) = (  -1.7288330  -2.4083888   4.3697547  )
       450        H      tau( 450) = (  -1.7432617  -2.4729526   4.3608320  )
       451        H      tau( 451) = (  -1.6612519  -2.3965281   4.3592290  )
       452        O      tau( 452) = (  -1.6829540  -1.8041588   4.1224250  )
       453        H      tau( 453) = (  -1.6530836  -1.8613549   4.0983121  )
       454        H      tau( 454) = (  -1.6297119  -1.7628922   4.1220966  )
       455        O      tau( 455) = (  -1.3178004  -1.8892721   3.8257786  )
       456        H      tau( 456) = (  -1.3038525  -1.9409608   3.8616807  )
       457        H      tau( 457) = (  -1.2508539  -1.8621624   3.8252275  )
       458        O      tau( 458) = (  -2.1072160  -2.2441220   3.9556163  )
       459        H      tau( 459) = (  -2.0562777  -2.2864312   3.9490482  )
       460        H      tau( 460) = (  -2.1645087  -2.2817548   3.9568298  )
       461        O      tau( 461) = (  -1.8137621  -1.6740174   4.1142260  )
       462        H      tau( 462) = (  -1.8431134  -1.6503395   4.0592650  )
       463        H      tau( 463) = (  -1.7659159  -1.7167834   4.1011954  )
       464        O      tau( 464) = (  -1.0806839  -1.2839022   3.7742353  )
       465        H      tau( 465) = (  -1.0301424  -1.2625290   3.7369416  )
       466        H      tau( 466) = (  -1.0939333  -1.3432736   3.7493153  )
       467        O      tau( 467) = (  -2.0635932  -2.1392017   3.7305126  )
       468        H      tau( 468) = (  -2.0961942  -2.0800758   3.7198310  )
       469        H      tau( 469) = (  -2.0559939  -2.1490598   3.7955094  )
       470        O      tau( 470) = (  -1.7092028  -2.3941877   4.1498776  )
       471        H      tau( 471) = (  -1.7282674  -2.3844941   4.2161213  )
       472        H      tau( 472) = (  -1.6370142  -2.3994982   4.1509798  )
       473        O      tau( 473) = (  -1.7108330  -1.9840797   4.3800244  )
       474        H      tau( 474) = (  -1.7301075  -1.9863525   4.4437465  )
       475        H      tau( 475) = (  -1.7166999  -1.9186249   4.3618284  )
       476        O      tau( 476) = (  -1.9451804  -1.4770178   4.0173402  )
       477        H      tau( 477) = (  -1.9164095  -1.5275736   3.9854958  )
       478        H      tau( 478) = (  -1.9071572  -1.4463440   4.0622430  )
       479        O      tau( 479) = (  -1.2662238  -1.4059366   3.8467465  )
       480        H      tau( 480) = (  -1.3258952  -1.4253785   3.8719448  )
       481        H      tau( 481) = (  -1.2620422  -1.3381772   3.8554855  )
       482        O      tau( 482) = (  -2.1317530  -1.7356710   4.1884015  )
       483        H      tau( 483) = (  -2.1546756  -1.6826589   4.2225392  )
       484        H      tau( 484) = (  -2.1055402  -1.7125922   4.1299283  )
       485        O      tau( 485) = (  -1.8220927  -2.2543527   4.2951784  )
       486        H      tau( 486) = (  -1.8655059  -2.2760919   4.2490901  )
       487        H      tau( 487) = (  -1.8114605  -2.3088548   4.3390904  )
       488        O      tau( 488) = (  -1.6437788  -2.1828542   3.7635426  )
       489        H      tau( 489) = (  -1.6168204  -2.1894494   3.8247711  )
       490        H      tau( 490) = (  -1.6492308  -2.1195349   3.7488032  )
       491        O      tau( 491) = (  -1.5282435  -2.3730411   4.1241450  )
       492        H      tau( 492) = (  -1.4775678  -2.4122809   4.1465713  )
       493        H      tau( 493) = (  -1.4914648  -2.3205322   4.1005052  )

     number of k points=     1
                       cart. coord. in units 2pi/alat
        k(    1) = (   0.0000000   0.0000000   0.0000000), wk =   2.0000000

     Dense  grid:  3184389 G-vectors     FFT dimensions: ( 192, 200, 480)

     Estimated max dynamical RAM per process >     493.86 MB

     Estimated total dynamical RAM >      57.87 GB

     WARNING: libxc functional with ID  263 depends
      on external parameters: check the user_guide of
      QE if you need to modify them or to check their
      default values.

     Initial potential from superposition of free atoms

     starting charge    2103.6163, renormalised to    2104.0000
     Starting wfcs are 1530 randomized atomic wfcs

     total cpu time spent up to now is       36.0 secs

     Self-consistent Calculation

     iteration #  1     ecut=   110.00 Ry     beta= 0.50
     Davidson diagonalization with overlap
     ethr =  1.00E-02,  avg # of iterations =  2.0

     total cpu time spent up to now is      117.9 secs

     total energy              =  -11162.48591568 Ry
     estimated scf accuracy    <    4094.48812432 Ry

     iteration #  2     ecut=   110.00 Ry     beta= 0.50
     Davidson diagonalization with overlap
     ethr =  1.00E-02,  avg # of iterations =  2.0

     total cpu time spent up to now is      189.4 secs

     total energy              =  -11182.13104327 Ry
     estimated scf accuracy    <     541.26458490 Ry

     iteration #  3     ecut=   110.00 Ry     beta= 0.50
     Davidson diagonalization with overlap
     ethr =  1.00E-02,  avg # of iterations =  1.0

     total cpu time spent up to now is      246.6 secs

     total energy              =  -11183.72809599 Ry
     estimated scf accuracy    <      50.29681761 Ry

     iteration #  4     ecut=   110.00 Ry     beta= 0.50
     Davidson diagonalization with overlap
     ethr =  2.39E-03,  avg # of iterations =  1.0

     total cpu time spent up to now is      304.4 secs

     total energy              =  -11183.86877332 Ry
     estimated scf accuracy    <       0.84679165 Ry

     iteration #  5     ecut=   110.00 Ry     beta= 0.50
     Davidson diagonalization with overlap
     ethr =  4.02E-05,  avg # of iterations =  2.0

     total cpu time spent up to now is      364.5 secs

     total energy              =  -11183.90504460 Ry
     estimated scf accuracy    <       0.03483379 Ry

     iteration #  6     ecut=   110.00 Ry     beta= 0.50
     Davidson diagonalization with overlap
     ethr =  1.66E-06,  avg # of iterations =  3.0

     total cpu time spent up to now is      441.5 secs

     total energy              =  -11183.91152625 Ry
     estimated scf accuracy    <       0.00620720 Ry

     iteration #  7     ecut=   110.00 Ry     beta= 0.50
     Davidson diagonalization with overlap
     ethr =  2.95E-07,  avg # of iterations =  2.0

     total cpu time spent up to now is      510.5 secs

     total energy              =  -11183.91218886 Ry
     estimated scf accuracy    <       0.00205504 Ry

     iteration #  8     ecut=   110.00 Ry     beta= 0.50
     Davidson diagonalization with overlap
     ethr =  9.77E-08,  avg # of iterations =  2.0

     total cpu time spent up to now is      582.3 secs

     total energy              =  -11183.91238732 Ry
     estimated scf accuracy    <       0.00064840 Ry

     iteration #  9     ecut=   110.00 Ry     beta= 0.50
     Davidson diagonalization with overlap
     ethr =  3.08E-08,  avg # of iterations =  2.0

     total cpu time spent up to now is      646.5 secs

     total energy              =  -11183.91243022 Ry
     estimated scf accuracy    <       0.00008682 Ry

     iteration # 10     ecut=   110.00 Ry     beta= 0.50
     Davidson diagonalization with overlap
     ethr =  4.13E-09,  avg # of iterations =  2.0

     total cpu time spent up to now is      710.3 secs

     total energy              =  -11183.91243685 Ry
     estimated scf accuracy    <       0.00000688 Ry

     iteration # 11     ecut=   110.00 Ry     beta= 0.50
     Davidson diagonalization with overlap
     ethr =  3.27E-10,  avg # of iterations =  4.0

     total cpu time spent up to now is      796.0 secs

     total energy              =  -11183.91243870 Ry
     estimated scf accuracy    <       0.00000178 Ry

     iteration # 12     ecut=   110.00 Ry     beta= 0.50
     Davidson diagonalization with overlap
     ethr =  8.45E-11,  avg # of iterations =  2.0

     total cpu time spent up to now is      857.6 secs

     End of self-consistent calculation

          k = 0.0000 0.0000 0.0000 (398025 PWs)   bands (ev):

  -103.7771-103.7239-103.7099-103.6252-103.5602-103.4512-103.4155-103.4016
  -103.3935-103.3521-103.3469-103.3436-103.3037-103.2737-103.1871-102.9825
   -63.3201 -63.2989 -63.2980 -63.2756 -63.2743 -63.2521 -63.2304 -63.2275
   -63.2111 -63.1726 -63.1529 -63.1359 -63.1010 -63.0879 -63.0770 -63.0328
   -63.0286 -63.0083 -62.9904 -62.9899 -62.9832 -62.9808 -62.9620 -62.9578
   -62.9442 -62.9386 -62.9367 -62.9278 -62.9255 -62.9255 -62.9202 -62.9063
   -62.9014 -62.8989 -62.8952 -62.8837 -62.8807 -62.8763 -62.8700 -62.8528
   -62.8176 -62.8087 -62.8065 -62.7779 -62.7728 -62.5760 -62.5591 -62.4990
   -29.0944 -29.0608 -28.9973 -28.9337 -28.8861 -28.8728 -28.8420 -28.7971
   -28.7361 -28.7351 -28.6949 -28.6420 -28.6324 -28.5678 -28.4855 -28.2882
   -21.3767 -21.3126 -21.2872 -21.2610 -21.2317 -21.1301 -21.0770 -21.0582
   -21.0538 -21.0514 -21.0335 -21.0199 -20.9986 -20.9598 -20.9461 -20.9411
   -20.9078 -20.9048 -20.8656 -20.8466 -20.8147 -20.8083 -20.8008 -20.7808
   -20.7298 -20.7227 -20.7101 -20.7017 -20.6778 -20.6748 -20.6627 -20.6487
   -20.6326 -20.5982 -20.5808 -20.5735 -20.5630 -20.5581 -20.5254 -20.5188
   -20.5150 -20.5130 -20.4844 -20.4558 -20.4498 -20.4146 -20.4069 -20.3900
   -20.3797 -20.3660 -20.3492 -20.3426 -20.3364 -20.3156 -20.3066 -20.3035
   -20.2763 -20.2312 -20.2179 -20.2026 -20.1946 -20.1885 -20.1705 -20.1614
   -20.1478 -20.1049 -20.0984 -20.0813 -20.0697 -20.0609 -20.0564 -20.0347
   -20.0286 -20.0136 -20.0108 -20.0081 -20.0046 -19.9804 -19.9706 -19.9642
   -19.9475 -19.9361 -19.9102 -19.9016 -19.8914 -19.8737 -19.8635 -19.8527
   -19.8455 -19.8382 -19.8261 -19.8149 -19.8039 -19.7836 -19.7777 -19.7531
   -19.7463 -19.7374 -19.7326 -19.7206 -19.7163 -19.7068 -19.6993 -19.6815
   -19.6773 -19.6690 -19.6642 -19.6553 -19.6471 -19.6434 -19.5845 -19.5759
   -19.5668 -19.5518 -19.5368 -19.5187 -19.5099 -19.5048 -19.4995 -19.4953
   -19.4903 -19.4852 -19.4747 -19.4665 -19.4597 -19.4401 -19.4227 -19.4166
   -19.4008 -19.3990 -19.3972 -19.3538 -19.3451 -19.3397 -19.3326 -19.3299
   -19.3186 -19.3168 -19.2843 -19.2735 -19.2674 -19.2642 -19.2602 -19.2341
   -19.2303 -19.2273 -19.2050 -19.1991 -19.1883 -19.1652 -19.1586 -19.1490
   -19.1437 -19.1373 -19.1326 -19.1289 -19.1168 -19.1114 -19.0983 -19.0922
   -19.0842 -19.0734 -19.0591 -19.0531 -19.0462 -19.0364 -19.0173 -18.9541
   -18.9430 -18.9360 -18.9266 -18.9146 -18.8771 -18.8710 -18.8652 -18.8520
   -18.8392 -18.8365 -18.8306 -18.8199 -18.8145 -18.8058 -18.7764 -18.7746
   -18.7629 -18.7318 -18.7204 -18.7098 -18.6893 -18.6785 -18.6640 -18.6592
   -18.6419 -18.6221 -18.6161 -18.6089 -18.5962 -18.5835 -18.5676 -18.5595
   -18.5527 -18.5385 -18.5373 -18.5102 -18.4821 -18.4709 -18.4651 -18.4360
   -18.4177 -18.3965 -18.3489 -18.3405 -18.3153 -18.2931 -18.2592 -18.2541
   -18.2520 -18.1938 -18.1929 -18.1820 -18.1779 -18.1460 -18.1271 -18.1263
   -18.0948 -18.0812 -18.0346 -18.0040 -17.9760 -17.7834 -17.5492 -11.6871
   -11.6599 -11.6522 -11.6018 -11.5932 -11.5726 -11.5598 -11.5466 -11.5232
   -11.5016 -11.4945 -11.4737 -11.4700 -11.4591 -11.4547 -11.4462 -11.4460
   -11.4052 -11.3932 -11.3791 -11.3652 -11.3590 -11.3513 -11.3371 -11.3231
   -11.2990 -11.2941 -11.2865 -11.2854 -11.2528 -11.2471 -11.2455 -11.2424
   -11.2315 -11.1999 -11.1825 -11.1748 -11.1656 -11.1522 -11.1344 -11.1004
   -11.0991 -11.0879 -11.0465 -11.0155 -10.8655 -10.8536 -10.8106  -9.7440
    -9.5771  -9.4256  -9.2499  -9.2435  -9.1380  -9.0835  -9.0179  -8.9628
    -8.9499  -8.8705  -8.7993  -8.7663  -8.6946  -8.5855  -8.5685  -8.4906
    -8.4738  -8.4358  -8.3716  -8.2887  -8.2615  -8.2385  -8.1771  -8.1161
    -8.1085  -8.0765  -8.0656  -7.9945  -7.9369  -7.9293  -7.9065  -7.9042
    -7.8314  -7.7723  -7.7493  -7.7307  -7.6840  -7.6765  -7.6741  -7.6662
    -7.6597  -7.6379  -7.5981  -7.5972  -7.5313  -7.5216  -7.4312  -7.4019
    -7.3910  -7.3605  -7.3470  -7.3336  -7.3262  -7.3068  -7.2982  -7.2663
    -7.2507  -7.2322  -7.2048  -7.1907  -7.1827  -7.1735  -7.1645  -7.1489
    -7.1457  -7.1347  -7.1072  -7.0822  -7.0685  -7.0630  -7.0407  -7.0249
    -7.0172  -6.9928  -6.9723  -6.9430  -6.9176  -6.9114  -6.8968  -6.8742
    -6.8400  -6.7965  -6.7632  -6.7594  -6.7559  -6.7428  -6.7151  -6.7097
    -6.6980  -6.6790  -6.6613  -6.6468  -6.6449  -6.6074  -6.6008  -6.5937
    -6.5890  -6.5796  -6.5775  -6.5542  -6.5532  -6.5021  -6.4883  -6.4789
    -6.4594  -6.4480  -6.4341  -6.4276  -6.4223  -6.3979  -6.3939  -6.3817
    -6.3542  -6.3532  -6.3342  -6.3185  -6.3118  -6.3011  -6.2968  -6.2863
    -6.2742  -6.2563  -6.2491  -6.2366  -6.2216  -6.2093  -6.2048  -6.2027
    -6.1955  -6.1823  -6.1702  -6.1665  -6.1419  -6.1109  -6.0899  -6.0800
    -6.0701  -6.0678  -6.0407  -6.0349  -6.0179  -5.9948  -5.9918  -5.9667
    -5.9509  -5.9349  -5.9278  -5.9209  -5.9063  -5.8931  -5.8733  -5.8667
    -5.8411  -5.8299  -5.8175  -5.8025  -5.7878  -5.7785  -5.7681  -5.7593
    -5.7487  -5.7315  -5.7226  -5.7042  -5.7020  -5.6860  -5.6591  -5.6348
    -5.5857  -5.5837  -5.5451  -5.5294  -5.4962  -5.4834  -5.4313  -5.3653
    -5.2975  -5.2785  -5.2763  -5.2221  -5.2013  -5.1893  -5.1849  -5.1633
    -5.1452  -5.1303  -5.1055  -5.0851  -5.0284  -5.0162  -4.9998  -4.9838
    -4.9647  -4.9505  -4.9378  -4.9247  -4.9201  -4.9048  -4.8927  -4.8801
    -4.8730  -4.8400  -4.8123  -4.8090  -4.7786  -4.7709  -4.7444  -4.7401
    -4.7074  -4.6972  -4.6874  -4.6838  -4.6775  -4.6560  -4.6333  -4.6292
    -4.6021  -4.5783  -4.5442  -4.5439  -4.5241  -4.5131  -4.4934  -4.4621
    -4.4479  -4.4332  -4.4189  -4.3915  -4.3792  -4.3636  -4.3456  -4.3318
    -4.3280  -4.2944  -4.2671  -4.2562  -4.2468  -4.2361  -4.2301  -4.2072
    -4.1761  -4.1685  -4.1454  -4.1399  -4.1136  -4.1010  -4.0718  -4.0560
    -4.0405  -4.0243  -4.0166  -3.9997  -3.9865  -3.9730  -3.9585  -3.9467
    -3.9246  -3.9163  -3.8948  -3.8934  -3.8834  -3.8719  -3.8497  -3.8413
    -3.8359  -3.8163  -3.8083  -3.8039  -3.7962  -3.7879  -3.7815  -3.7554
    -3.7532  -3.7496  -3.7317  -3.7253  -3.7229  -3.7089  -3.7005  -3.6967
    -3.6855  -3.6729  -3.6575  -3.6313  -3.6128  -3.5974  -3.5943  -3.5756
    -3.5602  -3.5544  -3.5366  -3.5254  -3.4979  -3.4880  -3.4788  -3.4744
    -3.4677  -3.4530  -3.4450  -3.4410  -3.4343  -3.4258  -3.4210  -3.4146
    -3.3875  -3.3843  -3.3803  -3.3649  -3.3583  -3.3419  -3.3378  -3.3213
    -3.3086  -3.3077  -3.3008  -3.2856  -3.2779  -3.2758  -3.2685  -3.2562
    -3.2425  -3.2392  -3.2320  -3.2199  -3.2121  -3.1962  -3.1920  -3.1889
    -3.1801  -3.1616  -3.1500  -3.1345  -3.1232  -3.1170  -3.1067  -3.0934
    -3.0829  -3.0747  -3.0732  -3.0602  -3.0532  -3.0465  -3.0354  -3.0254
    -3.0079  -3.0028  -2.9976  -2.9869  -2.9832  -2.9592  -2.9523  -2.9466
    -2.9405  -2.9280  -2.9245  -2.9061  -2.9042  -2.8983  -2.8944  -2.8790
    -2.8756  -2.8672  -2.8646  -2.8544  -2.8491  -2.8398  -2.8376  -2.8200
    -2.8073  -2.8021  -2.7963  -2.7877  -2.7761  -2.7712  -2.7663  -2.7605
    -2.7517  -2.7415  -2.7370  -2.7291  -2.7219  -2.7181  -2.6995  -2.6911
    -2.6838  -2.6736  -2.6612  -2.6557  -2.6401  -2.6315  -2.6205  -2.6150
    -2.6031  -2.5992  -2.5956  -2.5868  -2.5768  -2.5592  -2.5513  -2.5445
    -2.5362  -2.5249  -2.5149  -2.5061  -2.4994  -2.4915  -2.4822  -2.4789
    -2.4688  -2.4589  -2.4551  -2.4502  -2.4425  -2.4331  -2.4262  -2.4017
    -2.4001  -2.3888  -2.3849  -2.3779  -2.3725  -2.3588  -2.3538  -2.3417
    -2.3341  -2.3199  -2.3097  -2.3013  -2.2911  -2.2817  -2.2694  -2.2620
    -2.2568  -2.2355  -2.2295  -2.2050  -2.1966  -2.1877  -2.1844  -2.1743
    -2.1538  -2.1450  -2.1373  -2.1289  -2.1217  -2.1083  -2.1027  -2.0914
    -2.0835  -2.0793  -2.0695  -2.0602  -2.0498  -2.0483  -2.0364  -2.0326
    -2.0171  -1.9950  -1.9848  -1.9749  -1.9723  -1.9560  -1.9548  -1.9456
    -1.9422  -1.9232  -1.9180  -1.9065  -1.8999  -1.8887  -1.8818  -1.8726
    -1.8694  -1.8552  -1.8369  -1.8311  -1.8223  -1.8162  -1.8066  -1.7965
    -1.7906  -1.7833  -1.7790  -1.7679  -1.7605  -1.7544  -1.7482  -1.7432
    -1.7358  -1.7293  -1.7184  -1.7143  -1.7086  -1.6993  -1.6957  -1.6864
    -1.6835  -1.6773  -1.6690  -1.6666  -1.6611  -1.6492  -1.6414  -1.6373
    -1.6293  -1.6245  -1.6096  -1.6087  -1.5960  -1.5931  -1.5794  -1.5671
    -1.5645  -1.5617  -1.5585  -1.5449  -1.5399  -1.5355  -1.5259  -1.5249
    -1.5204  -1.5077  -1.5029  -1.4958  -1.4918  -1.4895  -1.4879  -1.4837
    -1.4748  -1.4699  -1.4583  -1.4520  -1.4476  -1.4368  -1.4352  -1.4342
    -1.4218  -1.4169  -1.4116  -1.4023  -1.4009  -1.3982  -1.3893  -1.3855
    -1.3709  -1.3618  -1.3521  -1.3471  -1.3389  -1.3365  -1.3282  -1.3238
    -1.3222  -1.3085  -1.3076  -1.3013  -1.2888  -1.2874  -1.2788  -1.2685
    -1.2646  -1.2597  -1.2513  -1.2416  -1.2389  -1.2325  -1.2288  -1.2205
    -1.2123  -1.2053  -1.1992  -1.1941  -1.1870  -1.1842  -1.1742  -1.1618
    -1.1563  -1.1558  -1.1456  -1.1424  -1.1295  -1.1238  -1.1160  -1.1057
    -1.1003  -1.0984  -1.0942  -1.0825  -1.0766  -1.0686  -1.0629  -1.0543
    -1.0472  -1.0418  -1.0357  -1.0269  -1.0265  -1.0230  -1.0169  -1.0011
    -0.9865  -0.9797  -0.9593  -0.9547  -0.9447  -0.9404  -0.9259  -0.9156
    -0.9057  -0.8995  -0.8870  -0.8807  -0.8675  -0.8599  -0.8585  -0.8432
    -0.8376  -0.8320  -0.8218  -0.8034  -0.8012  -0.7879  -0.7858  -0.7751
    -0.7727  -0.7629  -0.7587  -0.7547  -0.7509  -0.7415  -0.7370  -0.7303
    -0.7219  -0.7194  -0.7121  -0.7039  -0.6900  -0.6828  -0.6815  -0.6604
    -0.6547  -0.6420  -0.6370  -0.6306  -0.6285  -0.6256  -0.6167  -0.6136
    -0.6067  -0.6023  -0.5858  -0.5768  -0.5687  -0.5665  -0.5236  -0.5228
    -0.5023  -0.4918  -0.4782  -0.4692  -0.4542  -0.4281  -0.4189  -0.3932
    -0.3864  -0.3797  -0.3767  -0.3581  -0.3305  -0.3266  -0.3120  -0.3041
    -0.2997  -0.2794  -0.2618  -0.2202  -0.2079  -0.1939  -0.1768  -0.1325
    -0.1302  -0.1282  -0.0715  -0.0637  -0.0427  -0.0235   0.0656   0.1283
     0.1698   0.2114   0.3691   0.6492

     highest occupied level (ev):     0.6492

!    total energy              =  -11183.91243881 Ry
     estimated scf accuracy    <       0.00000022 Ry

     The total energy is the sum of the following terms:
     one-electron contribution =  -20238.79692173 Ry
     hartree contribution      =   10765.60526905 Ry
     xc contribution           =   -2314.77091201 Ry
     ewald contribution        =     604.05012587 Ry

     convergence has been achieved in  12 iterations

     Forces acting on atoms (cartesian axes, Ry/au):

     atom    1 type  1   force =    -0.00518648    0.00170965   -0.00150801
     atom    2 type  2   force =     0.04517445   -0.07231163   -0.01957854
     atom    3 type  3   force =     0.00541509    0.02904466   -0.01617489
     atom    4 type  3   force =    -0.01708572   -0.08190548   -0.00820768
     atom    5 type  3   force =    -0.03839652    0.03341881    0.03957339
     atom    6 type  3   force =     0.00984953    0.02216987    0.03766090
     atom    7 type  3   force =     0.00750082    0.02444471   -0.08077609
     atom    8 type  3   force =     0.10578327   -0.02286545    0.01534401
     atom    9 type  4   force =    -0.00247526    0.00287060   -0.00026468
     atom   10 type  4   force =    -0.00763868   -0.03256543    0.00227007
     atom   11 type  4   force =     0.06258872    0.00857540   -0.00759036
     atom   12 type  4   force =     0.00666834    0.02811824   -0.00214607
     atom   13 type  4   force =    -0.02514052   -0.00944049    0.01691595
     atom   14 type  4   force =    -0.01064659    0.02073203   -0.01180454
     atom   15 type  4   force =    -0.01523138    0.01128387   -0.01454207
     atom   16 type  4   force =     0.03423523    0.03285989    0.08349108
     atom   17 type  4   force =    -0.01089639    0.01431736    0.01193236
     atom   18 type  4   force =    -0.01843262    0.03213935    0.00402482
     atom   19 type  4   force =    -0.04220783   -0.02575952    0.01545031
     atom   20 type  4   force =    -0.02827103   -0.00312679   -0.00423697
     atom   21 type  4   force =    -0.05682722   -0.02151601   -0.04221272
     atom   22 type  4   force =    -0.01121235   -0.00398602    0.01771404
     atom   23 type  2   force =     0.02632741    0.01775750   -0.01709542
     atom   24 type  3   force =    -0.01882070   -0.00256358    0.00235344
     atom   25 type  3   force =    -0.04792320   -0.12000039   -0.00525915
     atom   26 type  4   force =     0.00963683   -0.00021594    0.00976494
     atom   27 type  4   force =    -0.01790617   -0.00844724    0.03909566
     atom   28 type  4   force =    -0.00647241    0.01625800   -0.04076769
     atom   29 type  4   force =    -0.00613599    0.04949855    0.01372722
     atom   30 type  4   force =    -0.00546433    0.04171881   -0.01378679
     atom   31 type  4   force =     0.02871965    0.02918806    0.05527079
     atom   32 type  4   force =     0.01129504    0.03753406   -0.03817517
     atom   33 type  4   force =     0.06153284   -0.00260843    0.02786144
     atom   34 type  4   force =     0.04196667    0.08595987    0.07585405
     atom   35 type  4   force =    -0.02760716    0.04339923    0.04215272
     atom   36 type  2   force =    -0.02425777    0.04647869    0.00990628
     atom   37 type  3   force =    -0.05218615   -0.00701060    0.03244885
     atom   38 type  3   force =    -0.01954949   -0.10049999    0.00143836
     atom   39 type  4   force =    -0.03513710    0.02433650    0.01278605
     atom   40 type  4   force =    -0.04433900   -0.00891508   -0.00848144
     atom   41 type  4   force =    -0.01694974    0.00293089    0.01468825
     atom   42 type  4   force =    -0.00313138   -0.00064057    0.01385497
     atom   43 type  4   force =    -0.01675040    0.01058921   -0.05067700
     atom   44 type  4   force =     0.03666098    0.01001265   -0.00131849
     atom   45 type  4   force =     0.06209689   -0.02261036   -0.01604948
     atom   46 type  4   force =    -0.04589544    0.00165427    0.04625722
     atom   47 type  1   force =    -0.00622385   -0.03551421    0.00225031
     atom   48 type  1   force =     0.00449611   -0.00841190    0.00446756
     atom   49 type  1   force =     0.00120249    0.00309353   -0.00690576
     atom   50 type  2   force =    -0.00411989   -0.02136261    0.00830906
     atom   51 type  3   force =     0.02059217    0.00209064    0.00270252
     atom   52 type  3   force =    -0.04288230    0.02163540   -0.00644678
     atom   53 type  3   force =     0.00332291    0.03950195   -0.03541499
     atom   54 type  3   force =    -0.01089208   -0.03466720    0.02721187
     atom   55 type  3   force =     0.08217734    0.06371231   -0.03043567
     atom   56 type  3   force =    -0.08106475    0.01555546   -0.00862684
     atom   57 type  4   force =    -0.04717775   -0.03011395    0.01572222
     atom   58 type  4   force =     0.02133135    0.01513472   -0.03687788
     atom   59 type  4   force =     0.01302062   -0.04624106    0.01239670
     atom   60 type  4   force =     0.02601590   -0.04411186   -0.00849476
     atom   61 type  4   force =    -0.02849146    0.00708141    0.05602260
     atom   62 type  4   force =    -0.00560402   -0.00611881   -0.00744787
     atom   63 type  4   force =    -0.00977827   -0.01944014    0.00410819
     atom   64 type  4   force =     0.06415716    0.04936544   -0.03081968
     atom   65 type  4   force =    -0.01585062    0.04591860   -0.03278072
     atom   66 type  4   force =    -0.02170996    0.01413211    0.00920191
     atom   67 type  4   force =     0.01516822   -0.06251499   -0.03024539
     atom   68 type  4   force =    -0.02058261   -0.02382638    0.02535512
     atom   69 type  4   force =     0.01948934    0.00286262   -0.05472486
     atom   70 type  4   force =     0.00438415    0.00322163   -0.02189108
     atom   71 type  4   force =     0.03608090    0.00611840    0.05099363
     atom   72 type  4   force =     0.01084899   -0.00879380    0.01947425
     atom   73 type  1   force =     0.00692826    0.00740741    0.00283061
     atom   74 type  2   force =     0.03365603   -0.04586141    0.02011236
     atom   75 type  2   force =     0.03446057   -0.03464954   -0.00489422
     atom   76 type  3   force =     0.03573633   -0.06157112   -0.03246201
     atom   77 type  3   force =    -0.00505603    0.01991232    0.01450958
     atom   78 type  3   force =    -0.04464665    0.07353865    0.04967911
     atom   79 type  3   force =     0.00513932    0.04463111    0.04856109
     atom   80 type  3   force =    -0.04973887   -0.01737592    0.03847139
     atom   81 type  3   force =    -0.07845190   -0.01259017   -0.04678709
     atom   82 type  4   force =     0.03148369   -0.00643656    0.02006770
     atom   83 type  4   force =     0.03321170   -0.01339557   -0.01331658
     atom   84 type  4   force =    -0.00993114   -0.05866861   -0.02811619
     atom   85 type  4   force =     0.03689350   -0.02620055   -0.03437488
     atom   86 type  4   force =     0.02374603   -0.01586190   -0.02153219
     atom   87 type  4   force =     0.02356029   -0.02516536    0.03001182
     atom   88 type  4   force =     0.00675869    0.00621604    0.01705942
     atom   89 type  4   force =     0.01569054    0.04195406    0.03922306
     atom   90 type  4   force =     0.02271377    0.01108709   -0.01469376
     atom   91 type  4   force =    -0.00423702   -0.01444499   -0.02162824
     atom   92 type  4   force =    -0.00028395    0.00046652   -0.00760565
     atom   93 type  4   force =    -0.02508338    0.02381543   -0.04406506
     atom   94 type  4   force =     0.00398031    0.04280582    0.00775730
     atom   95 type  4   force =     0.03375169   -0.00728916    0.03754715
     atom   96 type  4   force =    -0.03682743   -0.01199991   -0.03388535
     atom   97 type  1   force =     0.01725741    0.00051874   -0.00607600
     atom   98 type  1   force =    -0.00050665    0.01836143   -0.02372966
     atom   99 type  1   force =     0.00765059    0.00736649   -0.00904143
     atom  100 type  2   force =     0.00218951    0.03421464    0.05187845
     atom  101 type  2   force =     0.00534352    0.00026567   -0.06711946
     atom  102 type  3   force =     0.03238561   -0.00430667    0.00161133
     atom  103 type  3   force =    -0.00271593    0.00758392    0.02800978
     atom  104 type  3   force =     0.01719654    0.04959988    0.03918328
     atom  105 type  3   force =     0.03729173   -0.01020200    0.02021046
     atom  106 type  3   force =     0.03861156    0.02535330    0.07895976
     atom  107 type  3   force =    -0.06893095   -0.04468442    0.02039097
     atom  108 type  4   force =     0.08393369    0.04076350    0.02138507
     atom  109 type  4   force =     0.01904796    0.01053329    0.00709658
     atom  110 type  4   force =    -0.02656078    0.01736638   -0.03239096
     atom  111 type  4   force =     0.02804780   -0.01004611   -0.02499584
     atom  112 type  4   force =    -0.04023322    0.00981358    0.01209682
     atom  113 type  4   force =     0.00812883   -0.00053098   -0.02401700
     atom  114 type  4   force =    -0.03670869   -0.02751146    0.01858319
     atom  115 type  4   force =     0.01876547    0.05452610   -0.01632679
     atom  116 type  4   force =     0.01744941   -0.00884215    0.00812401
     atom  117 type  4   force =     0.00325851   -0.05289702   -0.09285873
     atom  118 type  4   force =    -0.02167358   -0.00862868   -0.04055499
     atom  119 type  4   force =    -0.02376527    0.01433267    0.05204988
     atom  120 type  4   force =    -0.00577111   -0.02706652    0.06110487
     atom  121 type  4   force =    -0.04286642    0.02496038   -0.03671260
     atom  122 type  4   force =     0.02190626   -0.00797938    0.01275092
     atom  123 type  4   force =    -0.00270794    0.02496350   -0.03952603
     atom  124 type  4   force =    -0.04632093   -0.01460527   -0.07130555
     atom  125 type  5   force =     0.03051904    0.00335709    0.02324918
     atom  126 type  5   force =     0.02375902    0.03355342   -0.01694209
     atom  127 type  5   force =     0.00074397   -0.00624057   -0.02124491
     atom  128 type  5   force =     0.03887003    0.00884323   -0.02527370
     atom  129 type  5   force =     0.01075140    0.00039491   -0.00787681
     atom  130 type  5   force =    -0.02045780   -0.00901316    0.02416057
     atom  131 type  5   force =     0.04125283   -0.03556293    0.02531590
     atom  132 type  5   force =    -0.01885161   -0.02342815    0.05934702
     atom  133 type  5   force =    -0.00148100   -0.00569748    0.00664018
     atom  134 type  5   force =     0.00268647   -0.02296598   -0.01218915
     atom  135 type  5   force =     0.03977425    0.02958042   -0.03185103
     atom  136 type  5   force =     0.00729339    0.00026024   -0.02468533
     atom  137 type  5   force =     0.02750771   -0.01046558    0.02885916
     atom  138 type  5   force =     0.01486488   -0.00501614   -0.01295536
     atom  139 type  5   force =    -0.01832113   -0.03248701   -0.00545382
     atom  140 type  5   force =    -0.00367643    0.02014676   -0.04018793
     atom  141 type  1   force =    -0.01482622    0.00394724   -0.01023613
     atom  142 type  2   force =    -0.00070389   -0.01651142    0.02839948
     atom  143 type  3   force =    -0.01372682   -0.03599110   -0.06316191
     atom  144 type  3   force =     0.00945037    0.00527525   -0.05945592
     atom  145 type  3   force =     0.01263954    0.08535677    0.02875364
     atom  146 type  3   force =     0.01365925   -0.04432147   -0.01987273
     atom  147 type  3   force =     0.13772775   -0.07771818    0.03139137
     atom  148 type  3   force =    -0.02097503   -0.00279233    0.00603085
     atom  149 type  4   force =    -0.04485063    0.00128485    0.01099446
     atom  150 type  4   force =    -0.00019678   -0.06426572   -0.01369407
     atom  151 type  4   force =    -0.00347766   -0.06577181    0.04031645
     atom  152 type  4   force =    -0.03253389    0.03731813    0.00454996
     atom  153 type  4   force =     0.04288149   -0.10619424    0.05702679
     atom  154 type  4   force =     0.02471814   -0.01658973    0.04312847
     atom  155 type  4   force =     0.00325968    0.00484849    0.03382616
     atom  156 type  4   force =    -0.01316177   -0.00318603   -0.01963847
     atom  157 type  4   force =     0.00716586    0.03357428    0.03627525
     atom  158 type  4   force =    -0.00664548    0.03384013    0.03198291
     atom  159 type  4   force =    -0.06577984    0.02717686   -0.02911004
     atom  160 type  4   force =    -0.00514776   -0.02144461   -0.01977245
     atom  161 type  4   force =     0.00082524   -0.00992779    0.02239046
     atom  162 type  4   force =    -0.00383140    0.01931050   -0.01717378
     atom  163 type  2   force =    -0.01140020    0.00028934    0.03969022
     atom  164 type  3   force =    -0.05939478    0.00787309   -0.05499617
     atom  165 type  3   force =    -0.01603744   -0.08181047   -0.05321573
     atom  166 type  4   force =    -0.03203167   -0.01136831    0.00483163
     atom  167 type  4   force =    -0.03138803    0.05724203    0.06329184
     atom  168 type  4   force =     0.01970790    0.06080512    0.08973782
     atom  169 type  4   force =     0.03924191    0.00826244    0.00165336
     atom  170 type  4   force =     0.06465463    0.01157176    0.05941300
     atom  171 type  4   force =     0.01530847    0.00906647   -0.02114604
     atom  172 type  4   force =    -0.01137810    0.03570014    0.00200299
     atom  173 type  4   force =     0.00831954    0.01239774    0.03324094
     atom  174 type  4   force =    -0.04850340    0.02975653    0.03164069
     atom  175 type  4   force =     0.00782707   -0.02842420    0.04049867
     atom  176 type  2   force =     0.00110474    0.02430650   -0.00565845
     atom  177 type  3   force =    -0.01535221    0.02449054   -0.04241351
     atom  178 type  3   force =    -0.03920037   -0.01218073    0.03725430
     atom  179 type  4   force =     0.01317471   -0.01344870    0.01143107
     atom  180 type  4   force =     0.02274738    0.01746699   -0.01344422
     atom  181 type  4   force =     0.03143201    0.03079680    0.00274312
     atom  182 type  4   force =     0.02312295    0.05978812   -0.01892482
     atom  183 type  4   force =     0.00242263   -0.06097494    0.00894054
     atom  184 type  4   force =     0.03806622    0.02285318    0.06278763
     atom  185 type  4   force =    -0.02821545    0.00832260    0.01861083
     atom  186 type  4   force =     0.04144158   -0.00936954   -0.05160964
     atom  187 type  1   force =     0.01011661   -0.00473258   -0.00934706
     atom  188 type  1   force =    -0.01063293   -0.00864707    0.00539905
     atom  189 type  1   force =     0.00268437    0.01113678   -0.02268989
     atom  190 type  2   force =    -0.01816411    0.05806127   -0.01090004
     atom  191 type  3   force =    -0.02105471   -0.04122407    0.03947281
     atom  192 type  3   force =     0.00075053    0.04373741    0.01102150
     atom  193 type  3   force =    -0.01247309   -0.01530834    0.03039692
     atom  194 type  3   force =     0.02414612   -0.04307309   -0.03110328
     atom  195 type  3   force =    -0.03817759    0.02324123   -0.04673338
     atom  196 type  3   force =     0.01880148   -0.00854202   -0.04465630
     atom  197 type  4   force =     0.01778702   -0.00619343    0.00877435
     atom  198 type  4   force =     0.01321368   -0.03870033   -0.02209288
     atom  199 type  4   force =     0.00254999    0.05835318    0.03422925
     atom  200 type  4   force =    -0.03568051    0.01293929   -0.03485535
     atom  201 type  4   force =    -0.02684669    0.01473962   -0.00922605
     atom  202 type  4   force =     0.00707068    0.00312883    0.01588828
     atom  203 type  4   force =     0.00931467   -0.04563581    0.03523626
     atom  204 type  4   force =    -0.03377275   -0.03896296    0.03395556
     atom  205 type  4   force =    -0.03834230   -0.00198943   -0.00359970
     atom  206 type  4   force =     0.02446773    0.01213985   -0.01126396
     atom  207 type  4   force =     0.00509420    0.03890566   -0.01788438
     atom  208 type  4   force =     0.02960243    0.00795721   -0.01663238
     atom  209 type  4   force =    -0.02238605    0.02540680    0.00432771
     atom  210 type  4   force =     0.06705903   -0.05763009    0.05170309
     atom  211 type  4   force =    -0.00258555   -0.00144321   -0.01336196
     atom  212 type  4   force =    -0.00651689    0.01809371   -0.00952099
     atom  213 type  1   force =    -0.00522497    0.01368829   -0.00653825
     atom  214 type  2   force =    -0.01631791    0.06699462   -0.06534519
     atom  215 type  2   force =     0.03811416    0.01285069    0.00255213
     atom  216 type  3   force =    -0.01852337   -0.01996617   -0.00115945
     atom  217 type  3   force =    -0.02628025   -0.03189922    0.03125178
     atom  218 type  3   force =    -0.03876733   -0.02053373    0.08235328
     atom  219 type  3   force =     0.00179020   -0.04177549    0.01188265
     atom  220 type  3   force =     0.10694252   -0.04496563   -0.04540587
     atom  221 type  3   force =     0.06972428   -0.02965733    0.00037074
     atom  222 type  4   force =     0.02333265   -0.00641447    0.00241879
     atom  223 type  4   force =    -0.02740306    0.02479885    0.01187900
     atom  224 type  4   force =    -0.02632542    0.02627318   -0.03304449
     atom  225 type  4   force =     0.02791536    0.02258645   -0.04486296
     atom  226 type  4   force =     0.01417313   -0.00608010    0.00193140
     atom  227 type  4   force =    -0.04653250   -0.01498695    0.03114858
     atom  228 type  4   force =    -0.03182090    0.01156223   -0.00641475
     atom  229 type  4   force =    -0.00055994    0.00435004    0.03673408
     atom  230 type  4   force =    -0.00572415   -0.01363246    0.04738893
     atom  231 type  4   force =    -0.00077706    0.03777802    0.02994620
     atom  232 type  4   force =     0.03251362   -0.01057165   -0.00612343
     atom  233 type  4   force =    -0.05506679    0.00505711   -0.02471274
     atom  234 type  4   force =    -0.03547176    0.01831735   -0.03362850
     atom  235 type  4   force =     0.00488876   -0.01096673   -0.01869829
     atom  236 type  4   force =    -0.02421047   -0.00641014   -0.04539799
     atom  237 type  1   force =    -0.00739445   -0.00008398   -0.01289307
     atom  238 type  1   force =    -0.00391036    0.01143318   -0.00072424
     atom  239 type  1   force =     0.00812080    0.00960300   -0.00433950
     atom  240 type  2   force =    -0.08496304   -0.02971681    0.00004271
     atom  241 type  2   force =     0.01797436    0.02448044   -0.00054390
     atom  242 type  3   force =    -0.01131867   -0.01111821    0.02599544
     atom  243 type  3   force =    -0.03513341    0.01784833   -0.03306150
     atom  244 type  3   force =    -0.02951628    0.03239383   -0.00513894
     atom  245 type  3   force =     0.04001450    0.02492793   -0.02515279
     atom  246 type  3   force =     0.02430165   -0.04745823    0.01306133
     atom  247 type  3   force =    -0.00509744    0.04920740    0.02474644
     atom  248 type  4   force =     0.02156672    0.00218488    0.00632842
     atom  249 type  4   force =     0.04748245    0.02063626    0.02367358
     atom  250 type  4   force =    -0.02057184    0.02091088    0.01469671
     atom  251 type  4   force =     0.01796797   -0.02636140   -0.00907430
     atom  252 type  4   force =    -0.00846577   -0.01662931   -0.01020184
     atom  253 type  4   force =     0.05306737   -0.01019428   -0.03760261
     atom  254 type  4   force =    -0.05091268   -0.00495263    0.05822505
     atom  255 type  4   force =     0.02645849    0.05594339   -0.04636583
     atom  256 type  4   force =    -0.02837144   -0.02501383    0.01088661
     atom  257 type  4   force =     0.01251213   -0.01788226    0.00786490
     atom  258 type  4   force =     0.00153991   -0.03414764   -0.02476710
     atom  259 type  4   force =    -0.00178853    0.00738799   -0.00827726
     atom  260 type  4   force =     0.00576206   -0.01076246    0.00902224
     atom  261 type  4   force =    -0.02073176    0.00168327   -0.00097290
     atom  262 type  4   force =     0.00296242    0.02824878   -0.01959859
     atom  263 type  4   force =     0.01015414   -0.00288501    0.02618719
     atom  264 type  4   force =     0.01015778   -0.00921399    0.01676513
     atom  265 type  5   force =    -0.01225086   -0.01671557    0.00818365
     atom  266 type  5   force =    -0.00097214    0.02340248   -0.00232773
     atom  267 type  5   force =    -0.01552216   -0.01852747   -0.03435381
     atom  268 type  5   force =    -0.00038765    0.00806350    0.02937636
     atom  269 type  5   force =    -0.01581081    0.00187854   -0.03352044
     atom  270 type  5   force =     0.02249424    0.00362933    0.02061086
     atom  271 type  5   force =     0.00817809   -0.01664774   -0.00414221
     atom  272 type  5   force =     0.00222215   -0.02081941    0.00803184
     atom  273 type  5   force =    -0.01385719    0.06193639   -0.02087333
     atom  274 type  5   force =    -0.01014301   -0.01639243   -0.01796392
     atom  275 type  5   force =    -0.05469145   -0.00701964    0.02735950
     atom  276 type  5   force =     0.02564162   -0.01990442   -0.05381314
     atom  277 type  5   force =    -0.03283256   -0.01675341   -0.06863326
     atom  278 type  5   force =    -0.03008255    0.00161675   -0.02036032
     atom  279 type  5   force =     0.00515036   -0.02495196   -0.02635522
     atom  280 type  5   force =     0.02564814   -0.01653602   -0.01472797
     atom  281 type  4   force =    -0.00998085   -0.03967422    0.02179617
     atom  282 type  5   force =     0.00584482    0.02736983   -0.00530222
     atom  283 type  5   force =    -0.00532289    0.01876249    0.00553673
     atom  284 type  4   force =     0.05295019    0.03196408   -0.01535838
     atom  285 type  5   force =    -0.01047537   -0.00449393    0.02255316
     atom  286 type  5   force =    -0.02347280   -0.00519810   -0.00089493
     atom  287 type  4   force =     0.02606808    0.03888029   -0.03015449
     atom  288 type  5   force =    -0.02235727   -0.02167639    0.01324515
     atom  289 type  5   force =     0.00156283   -0.02276499    0.01083361
     atom  290 type  4   force =     0.05469651   -0.00220147    0.05229635
     atom  291 type  5   force =    -0.02126764   -0.01098976   -0.03451882
     atom  292 type  5   force =    -0.01074408    0.01918862   -0.01407683
     atom  293 type  4   force =     0.00596965   -0.01073797   -0.01954785
     atom  294 type  5   force =    -0.01089426   -0.00377186    0.03400942
     atom  295 type  5   force =     0.00588868    0.01716856   -0.01797539
     atom  296 type  4   force =     0.02694266   -0.00665588    0.00541171
     atom  297 type  5   force =     0.00178142    0.00420979   -0.00720324
     atom  298 type  5   force =    -0.02527029    0.00535293   -0.00565741
     atom  299 type  4   force =    -0.05661682    0.13894266   -0.03464861
     atom  300 type  5   force =     0.01100922   -0.01725722   -0.00191363
     atom  301 type  5   force =     0.02218233   -0.07235829   -0.02950538
     atom  302 type  4   force =     0.00600155    0.00873537    0.00742735
     atom  303 type  5   force =     0.01397540   -0.03309844    0.02787291
     atom  304 type  5   force =    -0.04587350    0.02021207   -0.04295911
     atom  305 type  4   force =     0.02242401    0.03030332    0.00960333
     atom  306 type  5   force =    -0.01734653   -0.00712291   -0.01160192
     atom  307 type  5   force =    -0.01455479   -0.02569956   -0.00488864
     atom  308 type  4   force =    -0.02969788    0.02349616   -0.04455890
     atom  309 type  5   force =     0.00345896   -0.05265723    0.07250117
     atom  310 type  5   force =     0.02552247    0.02839912   -0.02508258
     atom  311 type  4   force =     0.06257545   -0.01983273   -0.07458698
     atom  312 type  5   force =    -0.01438212   -0.00987147    0.01084939
     atom  313 type  5   force =    -0.07022812    0.03749024    0.06071881
     atom  314 type  4   force =     0.11977889   -0.01315013    0.07517512
     atom  315 type  5   force =    -0.09327720    0.01988981   -0.06450738
     atom  316 type  5   force =    -0.03298681   -0.00946619   -0.00038623
     atom  317 type  4   force =    -0.04740140    0.03831563   -0.04809775
     atom  318 type  5   force =     0.04830870   -0.02209537    0.02465249
     atom  319 type  5   force =    -0.00729272   -0.00545194    0.01730317
     atom  320 type  4   force =    -0.03449466    0.02485615    0.00257347
     atom  321 type  5   force =     0.01944946   -0.03908795   -0.00320507
     atom  322 type  5   force =     0.02498541    0.01092418    0.00687665
     atom  323 type  4   force =    -0.01119710   -0.04780644   -0.03649243
     atom  324 type  5   force =    -0.00286213   -0.01521109    0.00257432
     atom  325 type  5   force =     0.01958788    0.05842130    0.03958168
     atom  326 type  4   force =     0.01923998   -0.01156233    0.02828359
     atom  327 type  5   force =    -0.01832180    0.01792881   -0.01512600
     atom  328 type  5   force =     0.01020721   -0.00270267   -0.01993718
     atom  329 type  4   force =     0.01192120   -0.07647610    0.01676531
     atom  330 type  5   force =    -0.02392966    0.03584564   -0.00590278
     atom  331 type  5   force =     0.02978812    0.03593108   -0.00589299
     atom  332 type  4   force =     0.07815107    0.06915957    0.01071376
     atom  333 type  5   force =    -0.01059576   -0.03557807   -0.01055818
     atom  334 type  5   force =    -0.06303827   -0.02574628   -0.01605815
     atom  335 type  4   force =     0.00705991   -0.01194088   -0.01341343
     atom  336 type  5   force =     0.01874614   -0.00343174    0.00423709
     atom  337 type  5   force =    -0.00938380    0.00439507    0.01231358
     atom  338 type  4   force =     0.02619228   -0.00061235    0.05643559
     atom  339 type  5   force =    -0.03450297   -0.01159328   -0.02482435
     atom  340 type  5   force =     0.01060117    0.00817911   -0.01599872
     atom  341 type  4   force =    -0.00648406   -0.05232501   -0.00484169
     atom  342 type  5   force =    -0.00062681   -0.01036501   -0.01299850
     atom  343 type  5   force =    -0.01790509    0.05864313    0.00977014
     atom  344 type  4   force =     0.00665606    0.01901923   -0.00044535
     atom  345 type  5   force =     0.00268726   -0.00325953   -0.00814097
     atom  346 type  5   force =    -0.00822860   -0.01975489    0.00573019
     atom  347 type  4   force =    -0.03285269    0.01663930   -0.01954702
     atom  348 type  5   force =     0.02056593   -0.01328819    0.01918918
     atom  349 type  5   force =     0.01617288    0.00599929   -0.00110775
     atom  350 type  4   force =    -0.00624166   -0.04915639    0.02184084
     atom  351 type  5   force =    -0.00979496    0.03437799   -0.00181520
     atom  352 type  5   force =     0.00697073    0.00013950   -0.00078758
     atom  353 type  4   force =    -0.01066333    0.05153626   -0.03859856
     atom  354 type  5   force =     0.00834002   -0.04860758    0.00557330
     atom  355 type  5   force =    -0.00622690   -0.00635761    0.03488836
     atom  356 type  4   force =     0.01604740   -0.03888806   -0.00323351
     atom  357 type  5   force =    -0.02718795    0.01573419   -0.00378467
     atom  358 type  5   force =     0.00202607    0.00299790    0.00364553
     atom  359 type  4   force =    -0.01094419   -0.02255172    0.00852253
     atom  360 type  5   force =     0.00981085    0.00115468   -0.01998268
     atom  361 type  5   force =     0.01817923    0.02567048    0.01024474
     atom  362 type  4   force =    -0.11525811   -0.01370670    0.01951954
     atom  363 type  5   force =     0.05790101    0.01239382   -0.03816441
     atom  364 type  5   force =     0.02364988   -0.03379043    0.02890337
     atom  365 type  4   force =     0.02843714    0.09503704    0.04337684
     atom  366 type  5   force =     0.02773571   -0.02627383   -0.00441172
     atom  367 type  5   force =    -0.04598136   -0.05957911   -0.03592596
     atom  368 type  4   force =     0.02548483    0.03601794   -0.01383642
     atom  369 type  5   force =    -0.03241903   -0.00455683    0.00038030
     atom  370 type  5   force =     0.00860813   -0.01078074    0.02837266
     atom  371 type  4   force =     0.00466116    0.00812263   -0.01806247
     atom  372 type  5   force =    -0.00756899    0.00203614   -0.00592453
     atom  373 type  5   force =    -0.00127160   -0.01808118    0.02629099
     atom  374 type  4   force =     0.00738692    0.00490773   -0.07820116
     atom  375 type  5   force =    -0.00043730    0.00600866    0.04535186
     atom  376 type  5   force =    -0.01256051    0.01095999    0.04038210
     atom  377 type  4   force =    -0.01321126    0.07238520   -0.05015564
     atom  378 type  5   force =    -0.00065909   -0.05556521    0.03447105
     atom  379 type  5   force =     0.01362420   -0.00905159    0.02003542
     atom  380 type  4   force =    -0.04905467   -0.03817964    0.04413661
     atom  381 type  5   force =    -0.00311545    0.00728304    0.02058181
     atom  382 type  5   force =     0.04572162    0.01652927   -0.05960473
     atom  383 type  4   force =    -0.04406789   -0.11959037   -0.01886211
     atom  384 type  5   force =     0.05594503    0.03351213   -0.01428024
     atom  385 type  5   force =    -0.01789951    0.09621757    0.02071726
     atom  386 type  4   force =    -0.01580620    0.06347683    0.04526908
     atom  387 type  5   force =     0.01949288   -0.01736467   -0.01180386
     atom  388 type  5   force =    -0.02113349   -0.03787155   -0.04621466
     atom  389 type  4   force =    -0.01159744   -0.02864094   -0.02296226
     atom  390 type  5   force =     0.01062508   -0.01330166    0.00729347
     atom  391 type  5   force =     0.00082612    0.04059762    0.00130114
     atom  392 type  4   force =     0.05342141   -0.04393703    0.06296382
     atom  393 type  5   force =    -0.02098279    0.00467165   -0.00795436
     atom  394 type  5   force =    -0.04124772    0.03376865   -0.05743689
     atom  395 type  4   force =    -0.02017421   -0.03541533    0.11113303
     atom  396 type  5   force =     0.01694276    0.04839942   -0.07111003
     atom  397 type  5   force =     0.00247028   -0.02459316   -0.04775561
     atom  398 type  4   force =    -0.01507200   -0.01120630   -0.02843324
     atom  399 type  5   force =     0.03390449    0.01103856   -0.00973329
     atom  400 type  5   force =    -0.02473737   -0.00987810    0.03172683
     atom  401 type  4   force =    -0.03427820    0.00091553    0.01598059
     atom  402 type  5   force =     0.02123515   -0.00847030    0.00281677
     atom  403 type  5   force =     0.00731116   -0.01579559   -0.01002384
     atom  404 type  4   force =     0.05737560   -0.03302290    0.04057655
     atom  405 type  5   force =    -0.03457870    0.02690731   -0.00520812
     atom  406 type  5   force =    -0.01617858   -0.00322627   -0.02411353
     atom  407 type  4   force =     0.00232119    0.01991076    0.03853243
     atom  408 type  5   force =     0.00476278    0.01140689   -0.01708959
     atom  409 type  5   force =    -0.01698988   -0.02443673   -0.01615087
     atom  410 type  4   force =     0.05922316    0.03398306   -0.06432305
     atom  411 type  5   force =    -0.02505989    0.00472637    0.00417575
     atom  412 type  5   force =    -0.02749228   -0.03751690    0.04799088
     atom  413 type  4   force =    -0.02062579    0.05966511   -0.02116264
     atom  414 type  5   force =     0.03750143   -0.02807560    0.00176167
     atom  415 type  5   force =    -0.01682466   -0.03160739    0.01092255
     atom  416 type  4   force =     0.02822628    0.02108671   -0.03096986
     atom  417 type  5   force =     0.00377427   -0.01945326    0.00156628
     atom  418 type  5   force =    -0.02788469   -0.00988393    0.02612305
     atom  419 type  4   force =     0.01437486   -0.00506581    0.01788793
     atom  420 type  5   force =    -0.00457221   -0.00228992   -0.00692695
     atom  421 type  5   force =    -0.01062592    0.01798395   -0.01222812
     atom  422 type  4   force =     0.03412524    0.00379623    0.00561939
     atom  423 type  5   force =    -0.00859928    0.01608921   -0.00905208
     atom  424 type  5   force =    -0.02543450   -0.01086142    0.00038694
     atom  425 type  4   force =    -0.03502498   -0.00435749   -0.01989999
     atom  426 type  5   force =     0.03032483    0.00205827   -0.01203746
     atom  427 type  5   force =     0.01090979   -0.00213815    0.02368163
     atom  428 type  4   force =    -0.00475062    0.00496114   -0.03984153
     atom  429 type  5   force =     0.01370018   -0.01604990    0.00859347
     atom  430 type  5   force =     0.00815383    0.00929445    0.02929535
     atom  431 type  4   force =     0.00787649   -0.01205980   -0.01821773
     atom  432 type  5   force =    -0.00362330   -0.00173029    0.00312255
     atom  433 type  5   force =     0.00453978    0.01707475    0.01407696
     atom  434 type  4   force =     0.07492324    0.01573832    0.00258627
     atom  435 type  5   force =    -0.01936586   -0.03169991    0.03236636
     atom  436 type  5   force =    -0.06597503    0.01776562   -0.03396979
     atom  437 type  4   force =     0.01600935    0.02817009   -0.00003970
     atom  438 type  5   force =     0.01683768   -0.02611076   -0.01915347
     atom  439 type  5   force =    -0.02820206   -0.00764613    0.00767504
     atom  440 type  4   force =     0.00459488    0.02639787   -0.01181294
     atom  441 type  5   force =    -0.00646402   -0.01048362    0.01875193
     atom  442 type  5   force =     0.00803668   -0.01515671   -0.00334188
     atom  443 type  4   force =    -0.00806831   -0.03860099   -0.02900021
     atom  444 type  5   force =     0.00537799    0.05910789    0.02423109
     atom  445 type  5   force =     0.00534474   -0.00791710    0.00430023
     atom  446 type  4   force =     0.00216037    0.00728950   -0.04263094
     atom  447 type  5   force =    -0.01920100   -0.00455154   -0.00106287
     atom  448 type  5   force =    -0.01059068   -0.03840981   -0.02407016
     atom  449 type  4   force =     0.02777074    0.02122567   -0.01533794
     atom  450 type  5   force =     0.00317624   -0.01217636   -0.02155527
     atom  451 type  5   force =    -0.03532028   -0.01785276    0.01199790
     atom  452 type  4   force =     0.00240212   -0.00243429   -0.01024563
     atom  453 type  5   force =    -0.00832208   -0.00698464    0.00657733
     atom  454 type  5   force =     0.00036180    0.02055279    0.01480304
     atom  455 type  4   force =     0.09658102    0.10139098   -0.04508848
     atom  456 type  5   force =     0.00047238   -0.09150593    0.06209566
     atom  457 type  5   force =    -0.07422644   -0.01512755    0.00317740
     atom  458 type  4   force =    -0.04802803    0.00705918   -0.00396221
     atom  459 type  5   force =     0.02651190   -0.01507004    0.00229963
     atom  460 type  5   force =     0.01460453    0.00814236   -0.00703435
     atom  461 type  4   force =    -0.04814179    0.06090143    0.03916356
     atom  462 type  5   force =     0.00132629   -0.01028292   -0.01323351
     atom  463 type  5   force =     0.03982999   -0.05709812   -0.02670684
     atom  464 type  4   force =    -0.02187274    0.01301325    0.02796632
     atom  465 type  5   force =     0.02927356    0.02492874   -0.03051456
     atom  466 type  5   force =    -0.01339220   -0.04187409   -0.01429421
     atom  467 type  4   force =    -0.00325819    0.00783378   -0.04886753
     atom  468 type  5   force =     0.00357648   -0.02726025    0.02212621
     atom  469 type  5   force =    -0.00904442    0.01539853    0.03578103
     atom  470 type  4   force =     0.05522719   -0.00349469    0.03574074
     atom  471 type  5   force =     0.01785488   -0.00361101   -0.04662819
     atom  472 type  5   force =    -0.07733502    0.01151920    0.00075031
     atom  473 type  4   force =     0.00364239   -0.01667983   -0.00236680
     atom  474 type  5   force =    -0.00704169   -0.00550423    0.00528078
     atom  475 type  5   force =    -0.00041848    0.00912325   -0.00026372
     atom  476 type  4   force =    -0.05008242    0.01350056   -0.01673725
     atom  477 type  5   force =     0.01902713   -0.01591690   -0.00012572
     atom  478 type  5   force =     0.03762660    0.00437733    0.02649216
     atom  479 type  4   force =    -0.00000045    0.01896548   -0.01180039
     atom  480 type  5   force =    -0.01099519    0.00998642   -0.00862459
     atom  481 type  5   force =    -0.00476167   -0.00296515    0.01591705
     atom  482 type  4   force =     0.01479153   -0.00013711   -0.02427341
     atom  483 type  5   force =    -0.00059079    0.01137137    0.00808566
     atom  484 type  5   force =    -0.01869795   -0.00806643    0.01485431
     atom  485 type  4   force =     0.01216462   -0.07271822    0.05595540
     atom  486 type  5   force =    -0.02017457   -0.00032221   -0.00999866
     atom  487 type  5   force =     0.00227398    0.05814144   -0.04525489
     atom  488 type  4   force =     0.00867479   -0.05268590   -0.00574631
     atom  489 type  5   force =     0.01589466   -0.00827346    0.00179222
     atom  490 type  5   force =    -0.01074934    0.05182302   -0.01917304
     atom  491 type  4   force =     0.03274050   -0.01610109    0.00943830
     atom  492 type  5   force =    -0.01196675   -0.00418479   -0.01411518
     atom  493 type  5   force =    -0.00476519   -0.00298060   -0.01393587

     Total force =     1.191774     Total SCF correction =     0.000400
     Message from routine punch:
     Nothing written, as per user request (disk_io='none')

     init_run     :     34.55s CPU     35.50s WALL (       1 calls)
     electrons    :    805.65s CPU    821.65s WALL (       1 calls)
     forces       :      9.09s CPU      9.69s WALL (       1 calls)

     Called by init_run:
     wfcinit      :     31.02s CPU     31.74s WALL (       1 calls)
     potinit      :      0.22s CPU      0.35s WALL (       1 calls)
     hinit0       :      1.43s CPU      1.46s WALL (       1 calls)

     Called by electrons:
     c_bands      :    669.39s CPU    682.58s WALL (      12 calls)
     sum_band     :    133.37s CPU    134.98s WALL (      12 calls)
     v_of_rho     :      2.26s CPU      3.32s WALL (      13 calls)
     mix_rho      :      0.58s CPU      0.79s WALL (      12 calls)

     Called by c_bands:
     init_us_2    :      3.07s CPU      3.22s WALL (      25 calls)
     init_us_2:cp :      3.07s CPU      3.22s WALL (      25 calls)
     regterg      :    666.03s CPU    677.81s WALL (      12 calls)

     Called by *egterg:
     rdiaghg      :      6.25s CPU      6.79s WALL (      37 calls)
     h_psi        :    591.11s CPU    599.06s WALL (      38 calls)
     g_psi        :      0.41s CPU      0.42s WALL (      25 calls)

     Called by h_psi:
     h_psi:calbec :     41.68s CPU     43.24s WALL (      38 calls)
     vloc_psi     :    125.83s CPU    127.33s WALL (      38 calls)
     add_vuspsi   :     38.54s CPU     39.28s WALL (      38 calls)
     h_psi_meta   :    383.71s CPU    387.85s WALL (      38 calls)

     General routines
     calbec       :     47.37s CPU     49.13s WALL (      42 calls)
     fft          :      2.74s CPU      3.51s WALL (     129 calls)
     ffts         :      0.14s CPU      0.25s WALL (      24 calls)
     fftw         :    570.32s CPU    576.39s WALL (  150432 calls)
     interpolate  :      0.01s CPU      0.01s WALL (      13 calls)

     Parallel routines

     PWSCF        :  14m 9.48s CPU  14m27.46s WALL


   This run was terminated on:  11:17:53   9Mar2025            

=------------------------------------------------------------------------------=
   JOB DONE.
=------------------------------------------------------------------------------=
