
     Program PWSCF v.7.3 starts on  9Mar2025 at 12:38: 8 

     This program is part of the open-source Quantum ESPRESSO suite
     for quantum simulation of materials; please cite
         "P. Giannozzi et al., J. Phys.:Condens. Matter 21 395502 (2009);
         "P. Giannozzi et al., J. Phys.:Condens. Matter 29 465901 (2017);
         "P. Giannozzi et al., J. Chem. Phys. 152 154105 (2020);
          URL http://www.quantum-espresso.org", 
     in publications or presentations arising from this work. More details at
     http://www.quantum-espresso.org/quote

     Parallel version (MPI & OpenMP), running on     120 processor cores
     Number of MPI processes:               120
     Threads/MPI process:                     1

     MPI processes distributed on     1 nodes
     597846 MiB available memory on the printing compute node when the environment starts

     Reading input from pw-water-98.in
Warning: card &CELL ignored
Warning: card / ignored
Warning: card &FCP ignored
Warning: card / ignored
Warning: card &RISM ignored
Warning: card / ignored

     Current dimensions of program PWSCF are:
     Max number of different atomic species (ntypx) = 10
     Max number of k-points (npk) =  40000
     Max angular momentum in pseudopotentials (lmaxx) =  4

     IMPORTANT: XC functional enforced from input :
     Exchange-correlation= SCAN
                           (   0   0   0   0   0 263 267)
     Any further DFT definition will be discarded
     Please, verify this is what you really want


     gamma-point specific algorithms are used

     R & G space division:  proc/nbgrp/npool/nimage =     120
     Subspace diagonalization in iterative solution of the eigenvalue problem:
     one sub-group per band group will be used
     ELPA distributed-memory algorithm (size of sub-group: 10* 10 procs)


     Parallelization info
     --------------------
     sticks:   dense  smooth     PW     G-vecs:    dense   smooth      PW
     Min         223     223     55                53054    53054    6618
     Max         226     226     58                53096    53096    6642
     Sum       27001   27001   6747              6368777  6368777  796049

     Using Slab Decomposition



     bravais-lattice index     =            0
     lattice parameter (alat)  =      27.1743  a.u.
     unit-cell volume          =   40863.0649 (a.u.)^3
     number of atoms/cell      =          493
     number of atomic types    =            5
     number of electrons       =      2104.00
     number of Kohn-Sham states=         1052
     kinetic-energy cutoff     =     110.0000  Ry
     charge density cutoff     =     440.0000  Ry
     scf convergence threshold =      1.0E-06
     mixing beta               =       0.5000
     number of iterations used =            8  plain     mixing
     Exchange-correlation= SCAN
                           (   0   0   0   0   0 263 267)

     celldm(1)=  27.174262  celldm(2)=   0.000000  celldm(3)=   0.000000
     celldm(4)=   0.000000  celldm(5)=   0.000000  celldm(6)=   0.000000

     crystal axes: (cart. coord. in units of alat)
               a(1) = (   1.000000   0.000000   0.000000 )  
               a(2) = (   0.263718   1.045271   0.000000 )  
               a(3) = (  -1.114529  -1.155389   1.948179 )  

     reciprocal axes: (cart. coord. in units 2 pi/alat)
               b(1) = (  1.000000 -0.252296  0.422460 )  
               b(2) = ( -0.000000  0.956690  0.567375 )  
               b(3) = (  0.000000  0.000000  0.513300 )  


     PseudoPot. # 1 for K  read from file:
     /scratch/zhouwq/DFT-feldspar-surface/script-dft/K_ONCV_PBE_sr.upf
     MD5 check sum: 1b7a13238029e3acac828725779bbc07
     Pseudo is Norm-conserving, Zval =  9.0
     Generated using ONCVPSP code by D. R. Hamann
     Using radial grid of 2222 points,  6 beta functions with: 
                l(1) =   0
                l(2) =   0
                l(3) =   1
                l(4) =   1
                l(5) =   2
                l(6) =   2

     PseudoPot. # 2 for Al read from file:
     /scratch/zhouwq/DFT-feldspar-surface/script-dft/Al_ONCV_PBE_sr.upf
     MD5 check sum: f1d308f5052db2acb2ab62005e7ebd82
     Pseudo is Norm-conserving, Zval = 11.0
     Generated using ONCVPSP code by D. R. Hamann
     Using radial grid of 1876 points,  4 beta functions with: 
                l(1) =   0
                l(2) =   0
                l(3) =   1
                l(4) =   1

     PseudoPot. # 3 for Si read from file:
     /scratch/zhouwq/DFT-feldspar-surface/script-dft/Si_ONCV_PBE_sr.upf
     MD5 check sum: 8553c464762ac42b85b1eed164b4d029
     Pseudo is Norm-conserving, Zval =  4.0
     Generated using ONCVPSP code by D. R. Hamann
     Using radial grid of 1510 points,  4 beta functions with: 
                l(1) =   0
                l(2) =   0
                l(3) =   1
                l(4) =   1

     PseudoPot. # 4 for O  read from file:
     /scratch/zhouwq/DFT-feldspar-surface/script-dft/O_ONCV_PBE_sr.upf
     MD5 check sum: 503208cc3dd01d9a06cc7045986f7d49
     Pseudo is Norm-conserving, Zval =  6.0
     Generated using ONCVPSP code by D. R. Hamann
     Using radial grid of  936 points,  4 beta functions with: 
                l(1) =   0
                l(2) =   0
                l(3) =   1
                l(4) =   1

     PseudoPot. # 5 for H  read from file:
     /scratch/zhouwq/DFT-feldspar-surface/script-dft/H_ONCV_PBE_sr.upf
     MD5 check sum: 8975ef619c0c80d0ef0fa21f3286b90d
     Pseudo is Norm-conserving, Zval =  1.0
     Generated using ONCVPSP code by D. R. Hamann
     Using radial grid of 1166 points,  2 beta functions with: 
                l(1) =   0
                l(2) =   0

     atomic species   valence    mass     pseudopotential
     K                 9.00    39.09830     K ( 1.00)
     Al               11.00    26.98154     Al( 1.00)
     Si                4.00    28.08500     Si( 1.00)
     O                 6.00    15.99900     O ( 1.00)
     H                 1.00     1.00800     H ( 1.00)

     No symmetry found



   Cartesian axes

     site n.     atom                  positions (alat units)
         1        K      tau(   1) = (  -0.9292115  -0.9087931   2.7606311  )
         2        Al     tau(   2) = (  -1.1829682  -1.6542896   2.7899206  )
         3        Si     tau(   3) = (  -1.0541869  -0.8416369   2.9659914  )
         4        Si     tau(   4) = (  -1.4590276  -1.6571108   2.7978803  )
         5        Si     tau(   5) = (  -1.1933738  -0.8167292   2.8059457  )
         6        Si     tau(   6) = (  -1.3173802  -1.6836968   2.9623289  )
         7        Si     tau(   7) = (  -0.9658264  -0.7155172   2.6158925  )
         8        Si     tau(   8) = (  -1.3231453  -1.5167883   2.6886264  )
         9        O      tau(   9) = (  -1.5632775  -1.6264009   2.8159371  )
        10        O      tau(  10) = (  -1.1977355  -0.8969602   2.7285863  )
        11        O      tau(  11) = (  -1.2801734  -0.8059094   2.8798541  )
        12        O      tau(  12) = (  -1.2232931  -1.6709693   2.9030263  )
        13        O      tau(  13) = (  -0.8917372  -0.6631218   2.5514746  )
        14        O      tau(  14) = (  -1.4141142  -1.5707591   2.7345366  )
        15        O      tau(  15) = (  -1.0707255  -0.4826906   2.5726040  )
        16        O      tau(  16) = (  -0.9480781  -0.7093136   2.7311691  )
        17        O      tau(  17) = (  -1.3170919  -1.7833664   3.0179967  )
        18        O      tau(  18) = (  -1.1844982  -0.7097504   2.7512631  )
        19        O      tau(  19) = (  -1.0724989  -0.6818107   2.6005242  )
        20        O      tau(  20) = (  -1.2312842  -1.5605946   2.7299667  )
        21        O      tau(  21) = (  -1.0961530  -0.8332497   2.8611015  )
        22        O      tau(  22) = (  -1.4076900  -1.6610479   2.9015234  )
        23        Al     tau(  23) = (  -1.0531683  -1.1382064   2.8024613  )
        24        Si     tau(  24) = (  -1.1931175  -1.0039448   2.7039502  )
        25        Si     tau(  25) = (  -1.0904321  -1.2314390   2.6272699  )
        26        O      tau(  26) = (  -1.4352734  -1.0944157   2.8136160  )
        27        O      tau(  27) = (  -0.9519186  -0.8256521   2.5902322  )
        28        O      tau(  28) = (  -1.0749947  -1.3329179   2.5867144  )
        29        O      tau(  29) = (  -1.2868209  -1.0566102   2.7423683  )
        30        O      tau(  30) = (  -1.0281389  -1.1544915   2.5693032  )
        31        O      tau(  31) = (  -1.0553899  -1.2350238   2.7322155  )
        32        O      tau(  32) = (  -1.1945067  -1.0171274   2.5882785  )
        33        O      tau(  33) = (  -1.1019655  -1.0419091   2.7514357  )
        34        O      tau(  34) = (  -1.2025592  -1.2058118   2.6218038  )
        35        O      tau(  35) = (  -1.8545617  -1.9459167   3.6751398  )
        36        Al     tau(  36) = (  -1.6054737  -1.1051126   3.4570216  )
        37        Si     tau(  37) = (  -1.4634671  -1.2488525   3.5570746  )
        38        Si     tau(  38) = (  -1.8320099  -2.0488772   3.6278825  )
        39        O      tau(  39) = (  -1.2175071  -1.1439735   3.4324134  )
        40        O      tau(  40) = (  -1.7279687  -1.4414094   3.6750340  )
        41        O      tau(  41) = (  -1.3722391  -1.1960981   3.5112589  )
        42        O      tau(  42) = (  -1.8706022  -2.1234431   3.7014458  )
        43        O      tau(  43) = (  -1.8741972  -2.0515973   3.5254918  )
        44        O      tau(  44) = (  -1.4493371  -1.2389691   3.6702248  )
        45        O      tau(  45) = (  -1.5611009  -1.1984292   3.5212615  )
        46        O      tau(  46) = (  -1.7153195  -2.0732379   3.6327363  )
        47        K      tau(  47) = (  -1.7159228  -1.3282560   3.5002490  )
        48        K      tau(  48) = (  -1.3435957  -1.6854993   3.2311275  )
        49        K      tau(  49) = (  -1.8737255  -1.8468349   3.5099008  )
        50        Al     tau(  50) = (  -1.7386208  -1.6341384   3.4570829  )
        51        Si     tau(  51) = (  -1.5989791  -1.3886065   3.2763419  )
        52        Si     tau(  52) = (  -1.4672011  -1.6270205   3.4293575  )
        53        Si     tau(  53) = (  -1.4609492  -1.4237142   3.4379796  )
        54        Si     tau(  54) = (  -1.6050983  -1.5945282   3.2816299  )
        55        Si     tau(  55) = (  -1.6901939  -1.5410668   3.6391040  )
        56        Si     tau(  56) = (  -1.5946946  -1.7637568   3.5468939  )
        57        O      tau(  57) = (  -1.3613536  -1.6582771   3.4313947  )
        58        O      tau(  58) = (  -1.4574517  -1.3566210   3.5276849  )
        59        O      tau(  59) = (  -1.5724924  -1.8748609   3.5257478  )
        60        O      tau(  60) = (  -1.6180209  -1.6722806   3.1988434  )
        61        O      tau(  61) = (  -1.3718515  -1.4302646   3.3741906  )
        62        O      tau(  62) = (  -1.6899218  -1.6094835   3.3502169  )
        63        O      tau(  63) = (  -1.7261689  -1.6258099   3.7022807  )
        64        O      tau(  64) = (  -1.5280923  -1.6962817   3.4939313  )
        65        O      tau(  65) = (  -1.5803741  -1.7498517   3.6618198  )
        66        O      tau(  66) = (  -1.7174080  -1.5413054   3.5318985  )
        67        O      tau(  67) = (  -1.5957021  -1.4950101   3.2368607  )
        68        O      tau(  68) = (  -1.4783903  -1.5227208   3.4828434  )
        69        O      tau(  69) = (  -1.5759574  -1.5435942   3.6476204  )
        70        O      tau(  70) = (  -1.6943829  -1.7386149   3.5128565  )
        71        O      tau(  71) = (  -1.5502599  -1.3860732   3.3766732  )
        72        O      tau(  72) = (  -1.5040953  -1.6240168   3.3266662  )
        73        K      tau(  73) = (  -1.2042606  -1.1611498   3.2215202  )
        74        Al     tau(  74) = (  -1.3365609  -0.8360855   2.9784153  )
        75        Al     tau(  75) = (  -1.4538247  -1.9177513   3.2642966  )
        76        Si     tau(  76) = (  -1.3210737  -1.1147582   3.4433955  )
        77        Si     tau(  77) = (  -1.7304522  -1.9226324   3.2801325  )
        78        Si     tau(  78) = (  -1.4669486  -1.0833154   3.2837729  )
        79        Si     tau(  79) = (  -1.5882449  -1.9487777   3.4394546  )
        80        Si     tau(  80) = (  -1.1979535  -0.9712366   3.0774885  )
        81        Si     tau(  81) = (  -1.5954234  -1.7847518   3.1657856  )
        82        O      tau(  82) = (  -0.9494316  -0.8778056   2.9516361  )
        83        O      tau(  83) = (  -1.8359169  -1.8833652   3.2846801  )
        84        O      tau(  84) = (  -1.4734127  -1.1490359   3.1947967  )
        85        O      tau(  85) = (  -1.5563624  -1.0846976   3.3468939  )
        86        O      tau(  86) = (  -1.5001975  -1.9442504   3.3738789  )
        87        O      tau(  87) = (  -1.1060707  -0.9126675   3.0292850  )
        88        O      tau(  88) = (  -1.6789277  -1.8511913   3.2064802  )
        89        O      tau(  89) = (  -1.5870924  -1.7840444   3.0564203  )
        90        O      tau(  90) = (  -1.1928020  -0.9669048   3.1908892  )
        91        O      tau(  91) = (  -1.5980040  -2.0544576   3.4859382  )
        92        O      tau(  92) = (  -1.4583853  -0.9766964   3.2373004  )
        93        O      tau(  93) = (  -1.2890072  -0.9394285   3.0199226  )
        94        O      tau(  94) = (  -1.5029288  -1.8159692   3.2169392  )
        95        O      tau(  95) = (  -1.3700552  -1.1070530   3.3390176  )
        96        O      tau(  96) = (  -1.6844892  -1.9252758   3.3850726  )
        97        K      tau(  97) = (  -1.4443410  -1.0620251   3.0117903  )
        98        K      tau(  98) = (  -1.0636647  -1.4336273   2.7612879  )
        99        K      tau(  99) = (  -1.5757198  -1.5703266   3.0274147  )
       100        Al     tau( 100) = (  -1.3170945  -1.3995575   3.2649646  )
       101        Al     tau( 101) = (  -1.4696979  -1.3673641   2.9840427  )
       102        Si     tau( 102) = (  -1.3343320  -1.1349227   2.8072315  )
       103        Si     tau( 103) = (  -1.1921962  -1.3662053   2.9702607  )
       104        Si     tau( 104) = (  -1.1980654  -1.1632998   2.9707283  )
       105        Si     tau( 105) = (  -1.3291880  -1.3437322   2.8069477  )
       106        Si     tau( 106) = (  -1.4584471  -1.2640270   3.1713852  )
       107        Si     tau( 107) = (  -1.3304253  -1.5075182   3.0790081  )
       108        O      tau( 108) = (  -1.7048265  -1.3535416   3.2909755  )
       109        O      tau( 109) = (  -1.0827061  -1.3844072   2.9640488  )
       110        O      tau( 110) = (  -1.1898994  -1.0860153   3.0571662  )
       111        O      tau( 111) = (  -1.3150735  -1.6159504   3.0586301  )
       112        O      tau( 112) = (  -1.3280850  -1.4067872   2.7126892  )
       113        O      tau( 113) = (  -1.1065383  -1.1649084   2.9081806  )
       114        O      tau( 114) = (  -1.4176890  -1.3485437   2.8731245  )
       115        O      tau( 115) = (  -1.5534325  -1.3191187   3.2011868  )
       116        O      tau( 116) = (  -1.2462968  -1.4497794   3.0271921  )
       117        O      tau( 117) = (  -1.3291946  -1.4949627   3.1928151  )
       118        O      tau( 118) = (  -1.4566504  -1.2728721   3.0604392  )
       119        O      tau( 119) = (  -1.3139383  -1.2374144   2.7684349  )
       120        O      tau( 120) = (  -1.2134220  -1.2661524   3.0246205  )
       121        O      tau( 121) = (  -1.3685846  -1.2962887   3.2301812  )
       122        O      tau( 122) = (  -1.4281744  -1.4717805   3.0373393  )
       123        O      tau( 123) = (  -1.2910807  -1.1302324   2.9167637  )
       124        O      tau( 124) = (  -1.2358492  -1.3692579   2.8642575  )
       125        H      tau( 125) = (  -1.7134994  -1.4363622   3.7416061  )
       126        H      tau( 126) = (  -1.9214032  -2.1637625   3.6954064  )
       127        H      tau( 127) = (  -1.4696508  -1.1784004   3.6898123  )
       128        H      tau( 128) = (  -1.6703539  -2.0603026   3.5815715  )
       129        H      tau( 129) = (  -1.8900469  -1.9450586   3.7306851  )
       130        H      tau( 130) = (  -1.7851013  -1.6524597   3.7012788  )
       131        H      tau( 131) = (  -1.6188822  -1.6994773   3.6908365  )
       132        H      tau( 132) = (  -1.5432787  -1.5493380   3.5909172  )
       133        H      tau( 133) = (  -0.8995084  -0.5983846   2.5562114  )
       134        H      tau( 134) = (  -1.0715927  -0.5464797   2.5540684  )
       135        H      tau( 135) = (  -1.1093300  -0.6864476   2.6563144  )
       136        H      tau( 136) = (  -0.9047360  -0.8398320   2.5427412  )
       137        H      tau( 137) = (  -1.0286852  -1.3399890   2.5367630  )
       138        H      tau( 138) = (  -1.0558087  -1.0939764   2.5553932  )
       139        H      tau( 139) = (  -1.2171791  -1.0799793   2.5746134  )
       140        H      tau( 140) = (  -1.2494500  -1.2097303   2.6702300  )
       141        K      tau( 141) = (  -0.4501745  -0.9062875   2.7459529  )
       142        Al     tau( 142) = (  -0.6795357  -1.6610416   2.8041256  )
       143        Si     tau( 143) = (  -0.5534102  -0.8429539   2.9506787  )
       144        Si     tau( 144) = (  -0.9566143  -1.6573366   2.8018991  )
       145        Si     tau( 145) = (  -0.6994393  -0.8164130   2.7974461  )
       146        Si     tau( 146) = (  -0.8146861  -1.6791768   2.9678283  )
       147        Si     tau( 147) = (  -0.4788843  -0.7055447   2.6149240  )
       148        Si     tau( 148) = (  -0.8143988  -1.5252817   2.7023026  )
       149        O      tau( 149) = (  -1.0629207  -1.6313800   2.8184642  )
       150        O      tau( 150) = (  -0.7079390  -0.8895715   2.7115258  )
       151        O      tau( 151) = (  -0.7892181  -0.8179578   2.8657604  )
       152        O      tau( 152) = (  -0.7174522  -1.6663560   2.9178491  )
       153        O      tau( 153) = (  -0.4162166  -0.6489639   2.5408542  )
       154        O      tau( 154) = (  -0.9099431  -1.5803639   2.7324882  )
       155        O      tau( 155) = (  -0.5447940  -0.4976221   2.5923084  )
       156        O      tau( 156) = (  -0.4531927  -0.7004896   2.7257197  )
       157        O      tau( 157) = (  -0.5686235  -0.7427248   3.0014260  )
       158        O      tau( 158) = (  -0.6847606  -0.7156366   2.7507455  )
       159        O      tau( 159) = (  -0.5882768  -0.6767212   2.5909113  )
       160        O      tau( 160) = (  -0.7207027  -1.5565992   2.7532224  )
       161        O      tau( 161) = (  -0.5978064  -0.8381539   2.8466293  )
       162        O      tau( 162) = (  -0.8987966  -1.6576873   2.8994082  )
       163        Al     tau( 163) = (  -0.5507393  -1.1338235   2.7956649  )
       164        Si     tau( 164) = (  -0.6979793  -1.0006595   2.7078243  )
       165        Si     tau( 165) = (  -0.6156904  -1.2485442   2.6233067  )
       166        O      tau( 166) = (  -0.9395453  -1.1134497   2.8345450  )
       167        O      tau( 167) = (  -0.4594878  -0.8136380   2.5925645  )
       168        O      tau( 168) = (  -0.6244041  -1.3639257   2.6087455  )
       169        O      tau( 169) = (  -0.7948887  -1.0493219   2.7486804  )
       170        O      tau( 170) = (  -0.5238270  -1.2149404   2.5562727  )
       171        O      tau( 171) = (  -0.5946208  -1.2282339   2.7299667  )
       172        O      tau( 172) = (  -0.6779959  -1.0160374   2.5965944  )
       173        O      tau( 173) = (  -0.6104773  -1.0338350   2.7678227  )
       174        O      tau( 174) = (  -0.7115787  -1.1983050   2.5827456  )
       175        O      tau( 175) = (  -1.3486178  -1.9518688   3.6752567  )
       176        Al     tau( 176) = (  -1.1012569  -1.1091350   3.4559028  )
       177        Si     tau( 177) = (  -0.9562896  -1.2428422   3.5480294  )
       178        Si     tau( 178) = (  -1.3115170  -2.0512433   3.6365937  )
       179        O      tau( 179) = (  -1.7199383  -1.1419127   3.4285949  )
       180        O      tau( 180) = (  -1.2230385  -1.4252276   3.6669018  )
       181        O      tau( 181) = (  -0.8754958  -1.1759920   3.5038225  )
       182        O      tau( 182) = (  -1.3413524  -2.1324562   3.7081642  )
       183        O      tau( 183) = (  -1.3443276  -2.0603146   3.5307185  )
       184        O      tau( 184) = (  -0.9473949  -1.2452898   3.6630054  )
       185        O      tau( 185) = (  -1.0564087  -1.2119518   3.5031323  )
       186        O      tau( 186) = (  -1.1954371  -2.0462474   3.6331983  )
       187        K      tau( 187) = (  -1.2256716  -1.3257097   3.4796205  )
       188        K      tau( 188) = (  -0.8218347  -1.7010890   3.2410688  )
       189        K      tau( 189) = (  -1.3559146  -1.8433803   3.5066612  )
       190        Al     tau( 190) = (  -1.2431684  -1.6338839   3.4515055  )
       191        Si     tau( 191) = (  -1.1046427  -1.3925854   3.2770655  )
       192        Si     tau( 192) = (  -0.9638766  -1.6309547   3.4341389  )
       193        Si     tau( 193) = (  -0.9597374  -1.4303882   3.4344228  )
       194        Si     tau( 194) = (  -1.0992890  -1.6029061   3.2758966  )
       195        Si     tau( 195) = (  -1.1860601  -1.5293609   3.6307992  )
       196        Si     tau( 196) = (  -1.1050198  -1.7623196   3.5430588  )
       197        O      tau( 197) = (  -1.8566799  -1.6629557   3.4318512  )
       198        O      tau( 198) = (  -0.9324095  -1.3528665   3.5205434  )
       199        O      tau( 199) = (  -1.0772052  -1.8659191   3.5126004  )
       200        O      tau( 200) = (  -1.1100794  -1.6740656   3.1897871  )
       201        O      tau( 201) = (  -0.8667538  -1.4413864   3.3729605  )
       202        O      tau( 202) = (  -1.1886466  -1.6133722   3.3418509  )
       203        O      tau( 203) = (  -1.2179606  -1.6200938   3.7021193  )
       204        O      tau( 204) = (  -1.0213105  -1.6958246   3.5064497  )
       205        O      tau( 205) = (  -1.0940710  -1.7530304   3.6572110  )
       206        O      tau( 206) = (  -1.2252513  -1.5420896   3.5268388  )
       207        O      tau( 207) = (  -1.1013347  -1.4970237   3.2305041  )
       208        O      tau( 208) = (  -0.9770239  -1.5304233   3.4797764  )
       209        O      tau( 209) = (  -1.0761339  -1.5203472   3.6470136  )
       210        O      tau( 210) = (  -1.2056228  -1.7310533   3.5057094  )
       211        O      tau( 211) = (  -1.0537227  -1.3922047   3.3802968  )
       212        O      tau( 212) = (  -1.0006711  -1.6231677   3.3267942  )
       213        K      tau( 213) = (  -0.7041331  -1.1726151   3.2334096  )
       214        Al     tau( 214) = (  -0.8353853  -0.8406854   2.9767509  )
       215        Al     tau( 215) = (  -0.9511142  -1.9142565   3.2543720  )
       216        Si     tau( 216) = (  -0.8221618  -1.1037336   3.4370222  )
       217        Si     tau( 217) = (  -1.2343272  -1.9174371   3.2775943  )
       218        Si     tau( 218) = (  -0.9669422  -1.0781102   3.2789247  )
       219        Si     tau( 219) = (  -1.0860694  -1.9403386   3.4286506  )
       220        Si     tau( 220) = (  -0.6836310  -0.9683389   3.0698795  )
       221        Si     tau( 221) = (  -1.0937949  -1.7835259   3.1629802  )
       222        O      tau( 222) = (  -1.4476513  -0.8732860   2.9437933  )
       223        O      tau( 223) = (  -1.3398504  -1.8811883   3.2877861  )
       224        O      tau( 224) = (  -0.9823871  -1.1503063   3.1915015  )
       225        O      tau( 225) = (  -1.0486471  -1.0948246   3.3478234  )
       226        O      tau( 226) = (  -0.9994469  -1.9454451   3.3605144  )
       227        O      tau( 227) = (  -0.6004252  -0.9242077   3.0115955  )
       228        O      tau( 228) = (  -1.1738134  -1.8451072   3.2117960  )
       229        O      tau( 229) = (  -1.0908366  -1.7967192   3.0524349  )
       230        O      tau( 230) = (  -0.6925746  -0.9653411   3.1800128  )
       231        O      tau( 231) = (  -1.0915796  -2.0442521   3.4801493  )
       232        O      tau( 232) = (  -0.9558593  -0.9749895   3.2342390  )
       233        O      tau( 233) = (  -0.7747464  -0.9312268   3.0211026  )
       234        O      tau( 234) = (  -1.0011573  -1.8103892   3.2159150  )
       235        O      tau( 235) = (  -0.8701016  -1.1108950   3.3263656  )
       236        O      tau( 236) = (  -1.1838017  -1.9149838   3.3782818  )
       237        K      tau( 237) = (  -0.9441553  -1.0520023   3.0184531  )
       238        K      tau( 238) = (  -0.5754264  -1.4535731   2.7563228  )
       239        K      tau( 239) = (  -1.0871392  -1.5897687   3.0173510  )
       240        Al     tau( 240) = (  -0.8151489  -1.3950920   3.2672133  )
       241        Al     tau( 241) = (  -0.9678650  -1.3668150   2.9834360  )
       242        Si     tau( 242) = (  -0.8341112  -1.1370448   2.8147014  )
       243        Si     tau( 243) = (  -0.6879284  -1.3637074   2.9753037  )
       244        Si     tau( 244) = (  -0.6837688  -1.1551689   2.9679229  )
       245        Si     tau( 245) = (  -0.8308216  -1.3430813   2.8076267  )
       246        Si     tau( 246) = (  -0.9577073  -1.2633200   3.1717581  )
       247        Si     tau( 247) = (  -0.8255739  -1.4999201   3.0819304  )
       248        O      tau( 248) = (  -1.2075994  -1.3570742   3.2943431  )
       249        O      tau( 249) = (  -1.5835607  -1.3934417   2.9552931  )
       250        O      tau( 250) = (  -0.6776992  -1.0809819   3.0532810  )
       251        O      tau( 251) = (  -0.8102984  -1.6081603   3.0598380  )
       252        O      tau( 252) = (  -0.8335192  -1.4164598   2.7204930  )
       253        O      tau( 253) = (  -0.5867136  -1.1512225   2.9125390  )
       254        O      tau( 254) = (  -0.9207525  -1.3440393   2.8682930  )
       255        O      tau( 255) = (  -1.0536946  -1.3154655   3.2114286  )
       256        O      tau( 256) = (  -0.7348008  -1.4387438   3.0451209  )
       257        O      tau( 257) = (  -0.8302272  -1.4866754   3.1896702  )
       258        O      tau( 258) = (  -0.9445781  -1.2742424   3.0615635  )
       259        O      tau( 259) = (  -0.8126570  -1.2365355   2.7607313  )
       260        O      tau( 260) = (  -0.6951484  -1.2608608   3.0139389  )
       261        O      tau( 261) = (  -0.8687896  -1.2904355   3.2301924  )
       262        O      tau( 262) = (  -0.9240912  -1.4688984   3.0270140  )
       263        O      tau( 263) = (  -0.7820870  -1.1368897   2.9142255  )
       264        O      tau( 264) = (  -0.7440668  -1.3672894   2.8784347  )
       265        H      tau( 265) = (  -1.2809996  -1.4187433   3.6940594  )
       266        H      tau( 266) = (  -1.3963264  -2.1700961   3.6922114  )
       267        H      tau( 267) = (  -0.9777972  -1.1951329   3.6873075  )
       268        H      tau( 268) = (  -1.1700050  -2.0552749   3.5707007  )
       269        H      tau( 269) = (  -1.3178054  -1.9162276   3.7246903  )
       270        H      tau( 270) = (  -1.2757054  -1.6526964   3.6766928  )
       271        H      tau( 271) = (  -1.1304021  -1.7061492   3.6896732  )
       272        H      tau( 272) = (  -1.0297819  -1.5352218   3.5957097  )
       273        H      tau( 273) = (  -0.4385525  -0.5945639   2.5111139  )
       274        H      tau( 274) = (  -0.5504125  -0.5591651   2.5721253  )
       275        H      tau( 275) = (  -0.6295185  -0.6901767   2.6409183  )
       276        H      tau( 276) = (  -0.4962412  -0.8438735   2.5482128  )
       277        H      tau( 277) = (  -0.6801783  -1.3957228   2.5832967  )
       278        H      tau( 278) = (  -0.5207941  -1.1561377   2.5247734  )
       279        H      tau( 279) = (  -0.7058752  -1.0724272   2.5720084  )
       280        H      tau( 280) = (  -0.7643937  -1.2207640   2.6167219  )
       281        O      tau( 281) = (  -1.5617181  -2.1524169   4.2227395  )
       282        H      tau( 282) = (  -1.5960520  -2.1196877   4.1778034  )
       283        H      tau( 283) = (  -1.6009421  -2.2033737   4.2404067  )
       284        O      tau( 284) = (  -1.9792057  -2.0376569   4.1461928  )
       285        H      tau( 285) = (  -2.0184602  -2.0900932   4.1219185  )
       286        H      tau( 286) = (  -1.9273099  -2.0702465   4.1728439  )
       287        O      tau( 287) = (  -1.4897065  -1.7514651   4.1448625  )
       288        H      tau( 288) = (  -1.4646971  -1.7043161   4.1007947  )
       289        H      tau( 289) = (  -1.4402413  -1.8003800   4.1356893  )
       290        O      tau( 290) = (  -1.2933987  -1.5317868   4.1042791  )
       291        H      tau( 291) = (  -1.2433574  -1.4879263   4.0784129  )
       292        H      tau( 292) = (  -1.3558584  -1.5103297   4.0864060  )
       293        O      tau( 293) = (  -1.5937033  -1.8750486   4.0486336  )
       294        H      tau( 294) = (  -1.5743387  -1.8101991   4.0698631  )
       295        H      tau( 295) = (  -1.5393841  -1.9039923   4.0157984  )
       296        O      tau( 296) = (  -2.1746439  -1.6163381   4.2424106  )
       297        H      tau( 297) = (  -1.2192879  -1.5887692   4.1984151  )
       298        H      tau( 298) = (  -2.1473833  -1.5724023   4.2830997  )
       299        O      tau( 299) = (  -1.6367934  -1.6939013   4.2695793  )
       300        H      tau( 300) = (  -1.6749300  -1.6910216   4.2114345  )
       301        H      tau( 301) = (  -1.5753417  -1.7042662   4.2386422  )
       302        O      tau( 302) = (  -1.3792349  -1.7199527   3.6827265  )
       303        H      tau( 303) = (  -1.3836867  -1.7279721   3.7513637  )
       304        H      tau( 304) = (  -1.4435064  -1.7255928   3.6716665  )
       305        O      tau( 305) = (  -1.4187765  -1.7358021   3.8775445  )
       306        H      tau( 306) = (  -1.4577657  -1.6883620   3.8923840  )
       307        H      tau( 307) = (  -1.4404991  -1.7913979   3.9058098  )
       308        O      tau( 308) = (  -1.5822222  -1.6754234   3.9700217  )
       309        H      tau( 309) = (  -1.5821870  -1.6160181   3.9418121  )
       310        H      tau( 310) = (  -1.6447391  -1.6934271   3.9593902  )
       311        O      tau( 311) = (  -2.0176993  -1.6080915   4.1326112  )
       312        H      tau( 312) = (  -2.0779068  -1.6133661   4.1546145  )
       313        H      tau( 313) = (  -2.0088141  -1.6570122   4.0874858  )
       314        O      tau( 314) = (  -1.9677333  -1.5350834   3.8349350  )
       315        H      tau( 315) = (  -1.9391001  -1.5872530   3.8001294  )
       316        H      tau( 316) = (  -1.9313729  -1.5290133   3.8931132  )
       317        O      tau( 317) = (  -2.1482247  -2.3462431   4.1754544  )
       318        H      tau( 318) = (  -2.1488786  -2.2832997   4.1621734  )
       319        H      tau( 319) = (  -2.1531936  -2.3499783   4.2417482  )
       320        O      tau( 320) = (  -1.3913749  -2.2213613   4.1657692  )
       321        H      tau( 321) = (  -1.3884954  -2.2070112   4.2381524  )
       322        H      tau( 322) = (  -1.4551462  -2.2057256   4.1503007  )
       323        O      tau( 323) = (  -1.4724659  -1.5319372   3.8174459  )
       324        H      tau( 324) = (  -1.4895463  -1.5426801   3.7540410  )
       325        H      tau( 325) = (  -1.4444426  -1.4699971   3.8136609  )
       326        O      tau( 326) = (  -1.1372612  -1.5730175   3.8805948  )
       327        H      tau( 327) = (  -1.0728307  -1.5616513   3.8573669  )
       328        H      tau( 328) = (  -1.1713998  -1.5810698   3.8217987  )
       329        O      tau( 329) = (  -2.1541306  -2.3509068   4.3724488  )
       330        H      tau( 330) = (  -2.1751393  -2.4159234   4.3940513  )
       331        H      tau( 331) = (  -2.1563130  -2.3141571   4.4301705  )
       332        O      tau( 332) = (  -1.4441887  -1.9760433   4.2874414  )
       333        H      tau( 333) = (  -1.5069337  -1.9996250   4.2734813  )
       334        H      tau( 334) = (  -1.4289930  -1.9395771   4.2339110  )
       335        O      tau( 335) = (  -1.6495922  -2.0487333   3.9862417  )
       336        H      tau( 336) = (  -1.7117267  -2.0290258   3.9782542  )
       337        H      tau( 337) = (  -1.6075581  -2.0052853   4.0219602  )
       338        O      tau( 338) = (  -1.6756432  -2.4501740   4.2849087  )
       339        H      tau( 339) = (  -1.6324447  -2.4778940   4.2458895  )
       340        H      tau( 340) = (  -1.7276871  -2.4925715   4.2898682  )
       341        O      tau( 341) = (  -2.2398546  -2.0396594   4.2157372  )
       342        H      tau( 342) = (  -1.2841588  -1.9985597   4.1830134  )
       343        H      tau( 343) = (  -2.1959712  -1.9989721   4.2446649  )
       344        O      tau( 344) = (  -1.2859141  -2.2091363   4.0016936  )
       345        H      tau( 345) = (  -1.3260537  -2.2120022   4.0566990  )
       346        H      tau( 346) = (  -1.2846890  -2.2722913   3.9748087  )
       347        O      tau( 347) = (  -1.8947557  -1.7697926   4.3369307  )
       348        H      tau( 348) = (  -1.8856097  -1.7052693   4.3289487  )
       349        H      tau( 349) = (  -1.9518187  -1.7916002   4.3092665  )
       350        O      tau( 350) = (  -1.7099460  -1.5116675   4.0275153  )
       351        H      tau( 351) = (  -1.6863448  -1.4599921   4.0655883  )
       352        H      tau( 352) = (  -1.6960736  -1.4955200   3.9657357  )
       353        O      tau( 353) = (  -1.9442052  -1.3276494   3.9383833  )
       354        H      tau( 354) = (  -1.9472244  -1.3896603   3.9728494  )
       355        H      tau( 355) = (  -0.9800558  -1.3389954   3.8802218  )
       356        O      tau( 356) = (  -1.7471874  -1.7699637   3.9710348  )
       357        H      tau( 357) = (  -1.7052677  -1.8218978   3.9700774  )
       358        H      tau( 358) = (  -1.8022775  -1.7784162   3.9321213  )
       359        O      tau( 359) = (  -1.3980401  -2.1010252   3.8948387  )
       360        H      tau( 360) = (  -1.3827976  -2.1182787   3.8289569  )
       361        H      tau( 361) = (  -1.3515000  -2.1352342   3.9299783  )
       362        O      tau( 362) = (  -1.2041196  -1.2195101   3.6775722  )
       363        H      tau( 363) = (  -1.1800005  -1.2771554   3.6982563  )
       364        H      tau( 364) = (  -1.2523219  -1.2028934   3.7214285  )
       365        O      tau( 365) = (  -1.4062356  -2.1771853   4.3474007  )
       366        H      tau( 366) = (  -2.3684100  -2.1503451   4.3961943  )
       367        H      tau( 367) = (  -1.4421664  -2.1244787   4.3249855  )
       368        O      tau( 368) = (  -1.1796340  -1.8296816   4.0146295  )
       369        H      tau( 369) = (  -1.1978494  -1.8471706   3.9517478  )
       370        H      tau( 370) = (  -1.2195096  -1.7769520   4.0326195  )
       371        O      tau( 371) = (  -1.5712761  -1.5016553   4.2703976  )
       372        H      tau( 372) = (  -1.8923226  -2.5086552   4.2721120  )
       373        H      tau( 373) = (  -1.5924462  -1.5661281   4.2789306  )
       374        O      tau( 374) = (  -2.0171498  -2.4699522   4.2838734  )
       375        H      tau( 375) = (  -2.0427511  -2.5315333   4.2932748  )
       376        H      tau( 376) = (  -2.0499170  -2.4310395   4.3270840  )
       377        O      tau( 377) = (  -2.3159348  -2.4103987   4.1256590  )
       378        H      tau( 378) = (  -1.3508658  -2.3554521   4.1494490  )
       379        H      tau( 379) = (  -2.2508936  -2.3847228   4.1414504  )
       380        O      tau( 380) = (  -1.7988346  -2.1742963   3.8698742  )
       381        H      tau( 381) = (  -1.7299495  -2.1686309   3.8688166  )
       382        H      tau( 382) = (  -1.8136208  -2.1410890   3.8140116  )
       383        O      tau( 383) = (  -1.3287506  -1.8771949   4.1470611  )
       384        H      tau( 384) = (  -1.2865465  -1.8894058   4.0966923  )
       385        H      tau( 385) = (  -1.2924840  -1.8318758   4.1876667  )
       386        O      tau( 386) = (  -1.2191287  -1.2916020   3.8844187  )
       387        H      tau( 387) = (  -1.2299597  -1.3461702   3.9277073  )
       388        H      tau( 388) = (  -1.1561601  -1.2999365   3.8600442  )
       389        O      tau( 389) = (  -1.4624691  -1.9262761   3.9221633  )
       390        H      tau( 390) = (  -1.4475497  -1.9938766   3.9287704  )
       391        H      tau( 391) = (  -1.5124769  -1.9207273   3.8758245  )
       392        O      tau( 392) = (  -1.5972622  -1.8973251   3.8031184  )
       393        H      tau( 393) = (  -1.6400019  -1.9426808   3.7762725  )
       394        H      tau( 394) = (  -1.5888708  -1.8472515   3.7558835  )
       395        O      tau( 395) = (  -1.9116443  -1.6908207   3.6837730  )
       396        H      tau( 396) = (  -0.9731310  -1.6977753   3.6538323  )
       397        H      tau( 397) = (  -1.9120913  -1.7408664   3.7282360  )
       398        O      tau( 398) = (  -1.8438894  -1.9835690   4.0299923  )
       399        H      tau( 399) = (  -1.8135832  -1.9423540   4.0699800  )
       400        H      tau( 400) = (  -1.8920483  -2.0134817   4.0673806  )
       401        O      tau( 401) = (  -2.1269766  -2.1457451   4.1024033  )
       402        H      tau( 402) = (  -2.1658764  -2.0980705   4.1325054  )
       403        H      tau( 403) = (  -2.1658077  -2.1703515   4.0535040  )
       404        O      tau( 404) = (  -1.4812956  -2.3494171   4.3776866  )
       405        H      tau( 405) = (  -1.5458105  -2.3508760   4.3976359  )
       406        H      tau( 406) = (  -1.4650892  -2.2853370   4.3592512  )
       407        O      tau( 407) = (  -1.9009692  -1.7955686   3.8673750  )
       408        H      tau( 408) = (  -1.9499934  -1.7832903   3.9181111  )
       409        H      tau( 409) = (  -1.9081794  -1.8619206   3.8610851  )
       410        O      tau( 410) = (  -2.2096913  -2.5192535   4.4287177  )
       411        H      tau( 411) = (  -2.2742820  -2.5237321   4.4079390  )
       412        H      tau( 412) = (  -2.1753484  -2.5581264   4.3815384  )
       413        O      tau( 413) = (  -1.6366776  -1.4368131   3.8545337  )
       414        H      tau( 414) = (  -1.5751883  -1.4654607   3.8406626  )
       415        H      tau( 415) = (  -1.6284476  -1.3805096   3.8950113  )
       416        O      tau( 416) = (  -1.3246750  -1.7071181   4.0397499  )
       417        H      tau( 417) = (  -1.3361116  -1.7047236   3.9742187  )
       418        H      tau( 418) = (  -1.3077403  -1.6435410   4.0633841  )
       419        O      tau( 419) = (  -1.9554049  -1.9775817   3.8440413  )
       420        H      tau( 420) = (  -2.0148381  -2.0095611   3.8323690  )
       421        H      tau( 421) = (  -1.9292501  -2.0152290   3.8883151  )
       422        O      tau( 422) = (  -1.6680442  -1.9912925   4.2077775  )
       423        H      tau( 423) = (  -1.6932239  -1.9458057   4.2539661  )
       424        H      tau( 424) = (  -1.6329995  -1.9481277   4.1684521  )
       425        O      tau( 425) = (  -1.7381860  -1.2151613   3.6811123  )
       426        H      tau( 426) = (  -1.7040176  -1.2547829   3.7222078  )
       427        H      tau( 427) = (  -1.8018033  -1.2165740   3.7040786  )
       428        O      tau( 428) = (  -1.8857836  -2.3172031   3.9561785  )
       429        H      tau( 429) = (  -1.8963171  -2.3296134   4.0211086  )
       430        H      tau( 430) = (  -1.8383588  -2.2694933   3.9469330  )
       431        O      tau( 431) = (  -2.0565440  -1.8625544   4.1740796  )
       432        H      tau( 432) = (  -2.0281998  -1.9243131   4.1660865  )
       433        H      tau( 433) = (  -2.0987633  -1.8614834   4.1235104  )
       434        O      tau( 434) = (  -1.5524039  -2.2086664   3.9926262  )
       435        H      tau( 435) = (  -1.5381790  -2.2295106   3.9291935  )
       436        H      tau( 436) = (  -1.5872727  -2.1510141   3.9856461  )
       437        O      tau( 437) = (  -1.4828791  -1.4989427   4.0891223  )
       438        H      tau( 438) = (  -1.5068514  -1.4519829   4.0453717  )
       439        H      tau( 439) = (  -1.5122680  -1.4880284   4.1481966  )
       440        O      tau( 440) = (  -2.0320721  -1.7238842   3.9852955  )
       441        H      tau( 441) = (  -2.0552708  -1.6659251   3.9570023  )
       442        H      tau( 442) = (  -2.0868159  -1.7636456   3.9980143  )
       443        O      tau( 443) = (  -1.9412241  -2.3968813   4.1182670  )
       444        H      tau( 444) = (  -1.8949244  -2.3568609   4.1462373  )
       445        H      tau( 445) = (  -1.9888667  -2.3958574   4.1706174  )
       446        O      tau( 446) = (  -2.3561092  -2.4945147   4.3114151  )
       447        H      tau( 447) = (  -2.3321848  -2.4777833   4.2473033  )
       448        H      tau( 448) = (  -2.4020445  -2.4491077   4.3346763  )
       449        O      tau( 449) = (  -1.7650310  -2.3178738   4.1634314  )
       450        H      tau( 450) = (  -1.7349061  -2.3593899   4.2068313  )
       451        H      tau( 451) = (  -1.7296980  -2.3325579   4.1070789  )
       452        O      tau( 452) = (  -1.7520236  -1.6758868   4.1262434  )
       453        H      tau( 453) = (  -1.7284596  -1.6287651   4.0891835  )
       454        H      tau( 454) = (  -1.7528713  -1.7292549   4.0849476  )
       455        O      tau( 455) = (  -1.2638449  -1.9009075   3.8377960  )
       456        H      tau( 456) = (  -1.2274145  -1.9580945   3.8344953  )
       457        H      tau( 457) = (  -1.3214934  -1.9145139   3.8716944  )
       458        O      tau( 458) = (  -2.0688876  -2.2657945   3.8535540  )
       459        H      tau( 459) = (  -2.0100447  -2.2700698   3.8861331  )
       460        H      tau( 460) = (  -2.1061672  -2.3055695   3.8939259  )
       461        O      tau( 461) = (  -1.8774548  -1.5796897   4.2603561  )
       462        H      tau( 462) = (  -1.9381309  -1.5841349   4.2371839  )
       463        H      tau( 463) = (  -1.8448504  -1.6031050   4.2062635  )
       464        O      tau( 464) = (  -1.0542788  -1.3552717   3.7809760  )
       465        H      tau( 465) = (  -1.0539031  -1.4180312   3.7548370  )
       466        H      tau( 466) = (  -1.0202179  -1.3138054   3.7357337  )
       467        O      tau( 467) = (  -1.1304968  -2.0671298   3.8048217  )
       468        H      tau( 468) = (  -1.1573990  -2.0644484   3.7416673  )
       469        H      tau( 469) = (  -2.1287792  -2.1288986   3.8331427  )
       470        O      tau( 470) = (  -1.6773999  -2.3526967   3.9896761  )
       471        H      tau( 471) = (  -1.6487026  -2.2911356   4.0039646  )
       472        H      tau( 472) = (  -1.3932712  -1.3102230   3.9233656  )
       473        O      tau( 473) = (  -1.7239791  -1.8670243   4.3209723  )
       474        H      tau( 474) = (  -1.7869064  -1.8422189   4.3258260  )
       475        H      tau( 475) = (  -1.6959698  -1.8093800   4.3073239  )
       476        O      tau( 476) = (  -1.9051891  -1.4971647   4.0015154  )
       477        H      tau( 477) = (  -1.8415154  -1.4967605   4.0191604  )
       478        H      tau( 478) = (  -1.9384457  -1.5180651   4.0584357  )
       479        O      tau( 479) = (  -1.3662620  -1.3663075   3.7808313  )
       480        H      tau( 480) = (  -1.3996900  -1.3139036   3.7525549  )
       481        H      tau( 481) = (  -1.3112214  -1.3322422   3.8045211  )
       482        O      tau( 482) = (  -2.2224327  -1.8043837   4.2875805  )
       483        H      tau( 483) = (  -2.2021126  -1.7392075   4.3019636  )
       484        H      tau( 484) = (  -2.1567447  -1.8219517   4.2717446  )
       485        O      tau( 485) = (  -1.8076593  -2.1218145   4.1873328  )
       486        H      tau( 486) = (  -1.7530052  -2.0835310   4.1810875  )
       487        H      tau( 487) = (  -1.7877645  -2.1845894   4.1748756  )
       488        O      tau( 488) = (  -1.5982943  -2.1398045   3.8048996  )
       489        H      tau( 489) = (  -1.5480353  -2.1009768   3.8245373  )
       490        H      tau( 490) = (  -1.6202503  -2.1113586   3.7485861  )
       491        O      tau( 491) = (  -1.1871659  -1.4335096   3.9963333  )
       492        H      tau( 492) = (  -1.1692828  -1.4823766   3.9556998  )
       493        H      tau( 493) = (  -1.1366905  -1.4141893   4.0341168  )

     number of k points=     1
                       cart. coord. in units 2pi/alat
        k(    1) = (   0.0000000   0.0000000   0.0000000), wk =   2.0000000

     Dense  grid:  3184389 G-vectors     FFT dimensions: ( 192, 200, 480)

     Estimated max dynamical RAM per process >     493.86 MB

     Estimated total dynamical RAM >      57.87 GB

     WARNING: libxc functional with ID  263 depends
      on external parameters: check the user_guide of
      QE if you need to modify them or to check their
      default values.

     Initial potential from superposition of free atoms

     starting charge    2103.6163, renormalised to    2104.0000
     Starting wfcs are 1530 randomized atomic wfcs

     total cpu time spent up to now is       34.6 secs

     Self-consistent Calculation

     iteration #  1     ecut=   110.00 Ry     beta= 0.50
     Davidson diagonalization with overlap
     ethr =  1.00E-02,  avg # of iterations =  2.0

     total cpu time spent up to now is      110.3 secs

     total energy              =  -11161.80134128 Ry
     estimated scf accuracy    <    4096.15677781 Ry

     iteration #  2     ecut=   110.00 Ry     beta= 0.50
     Davidson diagonalization with overlap
     ethr =  1.00E-02,  avg # of iterations =  2.0

     total cpu time spent up to now is      175.7 secs

     total energy              =  -11181.57626496 Ry
     estimated scf accuracy    <     539.67774869 Ry

     iteration #  3     ecut=   110.00 Ry     beta= 0.50
     Davidson diagonalization with overlap
     ethr =  1.00E-02,  avg # of iterations =  1.0

     total cpu time spent up to now is      228.5 secs

     total energy              =  -11183.17506511 Ry
     estimated scf accuracy    <      50.94379583 Ry

     iteration #  4     ecut=   110.00 Ry     beta= 0.50
     Davidson diagonalization with overlap
     ethr =  2.42E-03,  avg # of iterations =  1.0

     total cpu time spent up to now is      281.5 secs

     total energy              =  -11183.31660340 Ry
     estimated scf accuracy    <       0.89791071 Ry

     iteration #  5     ecut=   110.00 Ry     beta= 0.50
     Davidson diagonalization with overlap
     ethr =  4.27E-05,  avg # of iterations =  2.0

     total cpu time spent up to now is      336.5 secs

     total energy              =  -11183.35307984 Ry
     estimated scf accuracy    <       0.03719906 Ry

     iteration #  6     ecut=   110.00 Ry     beta= 0.50
     Davidson diagonalization with overlap
     ethr =  1.77E-06,  avg # of iterations =  4.0

     total cpu time spent up to now is      406.9 secs

     total energy              =  -11183.35949398 Ry
     estimated scf accuracy    <       0.00638380 Ry

     iteration #  7     ecut=   110.00 Ry     beta= 0.50
     Davidson diagonalization with overlap
     ethr =  3.03E-07,  avg # of iterations =  3.0

     total cpu time spent up to now is      470.6 secs

     total energy              =  -11183.36012734 Ry
     estimated scf accuracy    <       0.00244509 Ry

     iteration #  8     ecut=   110.00 Ry     beta= 0.50
     Davidson diagonalization with overlap
     ethr =  1.16E-07,  avg # of iterations =  3.0

     total cpu time spent up to now is      532.4 secs

     total energy              =  -11183.36034858 Ry
     estimated scf accuracy    <       0.00054610 Ry

     iteration #  9     ecut=   110.00 Ry     beta= 0.50
     Davidson diagonalization with overlap
     ethr =  2.60E-08,  avg # of iterations =  2.0

     total cpu time spent up to now is      589.7 secs

     total energy              =  -11183.36038984 Ry
     estimated scf accuracy    <       0.00002243 Ry

     iteration # 10     ecut=   110.00 Ry     beta= 0.50
     Davidson diagonalization with overlap
     ethr =  1.07E-09,  avg # of iterations =  5.0

     total cpu time spent up to now is      671.8 secs

     total energy              =  -11183.36039819 Ry
     estimated scf accuracy    <       0.00001862 Ry

     iteration # 11     ecut=   110.00 Ry     beta= 0.50
     Davidson diagonalization with overlap
     ethr =  8.85E-10,  avg # of iterations =  2.0

     total cpu time spent up to now is      726.9 secs

     total energy              =  -11183.36039904 Ry
     estimated scf accuracy    <       0.00000206 Ry

     iteration # 12     ecut=   110.00 Ry     beta= 0.50
     Davidson diagonalization with overlap
     ethr =  9.77E-11,  avg # of iterations =  4.0

     total cpu time spent up to now is      795.4 secs

     End of self-consistent calculation

          k = 0.0000 0.0000 0.0000 (398025 PWs)   bands (ev):

  -103.9623-103.9325-103.8735-103.8466-103.8209-103.8110-103.8064-103.7264
  -103.7181-103.6855-103.5782-103.5271-103.5140-103.4387-103.2651-103.2634
   -63.5278 -63.4932 -63.4886 -63.4658 -63.4497 -63.4495 -63.4290 -63.4163
   -63.4077 -63.4027 -63.3986 -63.3974 -63.3925 -63.3919 -63.3830 -63.3643
   -63.3522 -63.3508 -63.3422 -63.3383 -63.3111 -63.3000 -63.2920 -63.2906
   -63.2800 -63.2547 -63.2400 -63.2368 -63.2027 -63.1853 -63.1708 -63.1297
   -63.1151 -63.1065 -63.0892 -63.0748 -63.0686 -63.0418 -63.0264 -63.0073
   -62.9815 -62.9743 -62.8808 -62.8626 -62.8442 -62.8332 -62.8207 -62.8202
   -29.2058 -29.1552 -29.1120 -29.0172 -29.0069 -29.0026 -28.9769 -28.9507
   -28.9159 -28.8647 -28.8634 -28.8513 -28.8238 -28.8164 -28.7194 -28.4211
   -22.3291 -21.7127 -21.5919 -21.5055 -21.4488 -21.3779 -21.3348 -21.3252
   -21.3149 -21.2883 -21.2174 -21.1939 -21.0840 -21.0651 -21.0305 -20.9188
   -20.8727 -20.8668 -20.8534 -20.8487 -20.8273 -20.8247 -20.7875 -20.7730
   -20.7427 -20.7300 -20.7148 -20.7046 -20.6785 -20.6612 -20.6450 -20.6262
   -20.6222 -20.6147 -20.6062 -20.5675 -20.5458 -20.5098 -20.4989 -20.4615
   -20.4384 -20.4288 -20.4113 -20.4079 -20.3752 -20.3466 -20.3358 -20.3213
   -20.3153 -20.2886 -20.2642 -20.2596 -20.2307 -20.2092 -20.1857 -20.1733
   -20.1650 -20.1528 -20.1472 -20.1432 -20.1111 -20.1051 -20.1033 -20.0997
   -20.0943 -20.0643 -20.0576 -20.0504 -20.0292 -20.0166 -20.0119 -19.9871
   -19.9705 -19.9439 -19.9392 -19.9065 -19.9002 -19.8667 -19.8554 -19.8339
   -19.8210 -19.8081 -19.8037 -19.7980 -19.7921 -19.7840 -19.7672 -19.7624
   -19.7476 -19.7358 -19.7220 -19.7070 -19.7031 -19.6967 -19.6815 -19.6737
   -19.6568 -19.6521 -19.6444 -19.6396 -19.6266 -19.6055 -19.5991 -19.5966
   -19.5934 -19.5778 -19.5704 -19.5640 -19.5437 -19.5433 -19.5406 -19.5362
   -19.5285 -19.5236 -19.5103 -19.4852 -19.4751 -19.4712 -19.4692 -19.4498
   -19.4417 -19.4352 -19.4278 -19.4248 -19.4050 -19.4017 -19.4008 -19.3937
   -19.3770 -19.3749 -19.3681 -19.3532 -19.3385 -19.3301 -19.3243 -19.3082
   -19.3016 -19.2974 -19.2939 -19.2805 -19.2669 -19.2648 -19.2547 -19.2359
   -19.2213 -19.2164 -19.2123 -19.1973 -19.1774 -19.1713 -19.1620 -19.1516
   -19.1482 -19.1291 -19.1256 -19.1168 -19.1110 -19.1017 -19.0969 -19.0929
   -19.0867 -19.0812 -19.0613 -19.0441 -19.0391 -19.0181 -19.0050 -18.9924
   -18.9901 -18.9817 -18.9785 -18.9724 -18.9681 -18.9503 -18.9320 -18.9193
   -18.9053 -18.8948 -18.8815 -18.8699 -18.8581 -18.8441 -18.8415 -18.8230
   -18.8214 -18.8144 -18.8051 -18.7961 -18.7942 -18.7834 -18.7822 -18.7655
   -18.7512 -18.7377 -18.7366 -18.7271 -18.7127 -18.7025 -18.7011 -18.6995
   -18.6912 -18.6791 -18.6742 -18.6659 -18.6381 -18.6207 -18.5935 -18.5860
   -18.5791 -18.5730 -18.5615 -18.5238 -18.5087 -18.5028 -18.4868 -18.4749
   -18.4698 -18.4673 -18.4507 -18.4487 -18.4311 -18.3907 -18.3759 -18.2817
   -18.2598 -18.2369 -18.2204 -18.2182 -18.2010 -18.0773 -18.0048 -11.8039
   -11.7597 -11.7250 -11.7053 -11.7048 -11.6689 -11.6657 -11.6564 -11.6032
   -11.6007 -11.5906 -11.5884 -11.5732 -11.5724 -11.5641 -11.5496 -11.5463
   -11.5367 -11.5198 -11.5185 -11.5088 -11.5045 -11.5013 -11.4825 -11.4582
   -11.4575 -11.4527 -11.4437 -11.4417 -11.4395 -11.4353 -11.4253 -11.4157
   -11.4091 -11.3992 -11.3770 -11.3637 -11.3602 -11.3521 -11.3475 -11.3272
   -11.3158 -11.3102 -11.2723 -11.2458 -11.0137 -10.9938 -10.9857  -9.9215
    -9.8112  -9.7502  -9.4895  -9.3754  -9.3083  -9.2484  -9.2312  -9.1525
    -9.1400  -9.1123  -9.0518  -9.0160  -8.9699  -8.8669  -8.7676  -8.6958
    -8.5598  -8.5435  -8.5015  -8.4903  -8.4518  -8.4159  -8.4105  -8.3801
    -8.3548  -8.3295  -8.2955  -8.2764  -8.2364  -8.1631  -8.1419  -8.1202
    -8.1152  -8.0162  -7.8671  -7.8295  -7.7620  -7.6685  -7.6231  -7.5731
    -7.5427  -7.4919  -7.4612  -7.4383  -7.4105  -7.3974  -7.3636  -7.3207
    -7.3102  -7.2541  -7.2423  -7.2085  -7.1798  -7.1289  -7.1146  -7.0636
    -7.0564  -7.0530  -7.0271  -7.0219  -7.0093  -6.9994  -6.9766  -6.9649
    -6.9187  -6.9150  -6.8999  -6.8902  -6.8778  -6.8721  -6.8530  -6.8368
    -6.8237  -6.8171  -6.7965  -6.7526  -6.7245  -6.7168  -6.7159  -6.6986
    -6.6843  -6.6665  -6.6598  -6.6571  -6.6463  -6.6170  -6.6148  -6.6067
    -6.5955  -6.5944  -6.5838  -6.5746  -6.5635  -6.5511  -6.5440  -6.5344
    -6.5290  -6.5221  -6.5104  -6.4917  -6.4794  -6.4479  -6.4395  -6.4364
    -6.4227  -6.4189  -6.4036  -6.3946  -6.3673  -6.3664  -6.3598  -6.3424
    -6.3294  -6.3125  -6.3037  -6.3005  -6.2961  -6.2805  -6.2748  -6.2635
    -6.2542  -6.2515  -6.2164  -6.2098  -6.2051  -6.1980  -6.1896  -6.1779
    -6.1615  -6.1472  -6.1395  -6.1312  -6.1229  -6.1112  -6.0980  -6.0878
    -6.0736  -6.0459  -6.0358  -6.0353  -6.0159  -6.0072  -6.0028  -5.9973
    -5.9891  -5.9502  -5.9395  -5.9181  -5.9098  -5.9019  -5.8830  -5.8757
    -5.8569  -5.8319  -5.8201  -5.8162  -5.8031  -5.7882  -5.7836  -5.7754
    -5.7692  -5.7442  -5.7218  -5.7044  -5.6771  -5.6644  -5.6369  -5.5829
    -5.5315  -5.5133  -5.4977  -5.4812  -5.4565  -5.4562  -5.4483  -5.4311
    -5.4294  -5.3906  -5.3644  -5.3503  -5.3393  -5.3272  -5.3159  -5.3065
    -5.2614  -5.2514  -5.2498  -5.2454  -5.2285  -5.2217  -5.2064  -5.1927
    -5.1749  -5.1301  -5.1175  -5.1123  -5.0874  -5.0589  -5.0337  -5.0103
    -4.9923  -4.9757  -4.9573  -4.9312  -4.9217  -4.9054  -4.8875  -4.8834
    -4.8662  -4.8481  -4.8385  -4.8274  -4.8154  -4.8085  -4.7571  -4.7447
    -4.7210  -4.7163  -4.6946  -4.6910  -4.6720  -4.6545  -4.6396  -4.6154
    -4.6063  -4.5870  -4.5617  -4.5350  -4.5294  -4.4867  -4.4574  -4.4460
    -4.4219  -4.4062  -4.3943  -4.3558  -4.3430  -4.3302  -4.3129  -4.2825
    -4.2567  -4.2306  -4.1875  -4.1731  -4.1469  -4.1316  -4.1106  -4.1041
    -4.0822  -4.0545  -4.0453  -4.0112  -4.0026  -3.9858  -3.9709  -3.9603
    -3.9507  -3.9390  -3.9365  -3.9177  -3.9173  -3.8978  -3.8957  -3.8714
    -3.8685  -3.8475  -3.8270  -3.8193  -3.7983  -3.7941  -3.7855  -3.7793
    -3.7573  -3.7439  -3.7349  -3.7227  -3.7129  -3.6943  -3.6903  -3.6749
    -3.6484  -3.6474  -3.6264  -3.6248  -3.6133  -3.6093  -3.6001  -3.5848
    -3.5726  -3.5659  -3.5589  -3.5471  -3.5310  -3.5232  -3.5157  -3.5117
    -3.4916  -3.4837  -3.4704  -3.4668  -3.4369  -3.4248  -3.4163  -3.4111
    -3.4017  -3.3981  -3.3863  -3.3691  -3.3642  -3.3609  -3.3433  -3.3337
    -3.3290  -3.3145  -3.3067  -3.3004  -3.2825  -3.2751  -3.2666  -3.2634
    -3.2576  -3.2523  -3.2430  -3.2338  -3.2257  -3.2173  -3.2023  -3.1960
    -3.1858  -3.1785  -3.1707  -3.1642  -3.1559  -3.1435  -3.1408  -3.1329
    -3.1188  -3.1160  -3.0978  -3.0909  -3.0817  -3.0779  -3.0673  -3.0657
    -3.0596  -3.0374  -3.0342  -3.0224  -3.0118  -3.0078  -2.9986  -2.9901
    -2.9784  -2.9754  -2.9624  -2.9561  -2.9403  -2.9299  -2.9250  -2.9014
    -2.8970  -2.8944  -2.8902  -2.8856  -2.8772  -2.8668  -2.8569  -2.8519
    -2.8399  -2.8303  -2.8276  -2.8172  -2.8029  -2.7998  -2.7966  -2.7813
    -2.7791  -2.7689  -2.7582  -2.7551  -2.7534  -2.7386  -2.7293  -2.7180
    -2.7138  -2.7040  -2.6874  -2.6787  -2.6723  -2.6703  -2.6519  -2.6430
    -2.6410  -2.6299  -2.6223  -2.6068  -2.6006  -2.5889  -2.5827  -2.5706
    -2.5636  -2.5520  -2.5409  -2.5253  -2.5177  -2.5160  -2.5087  -2.4982
    -2.4896  -2.4841  -2.4696  -2.4609  -2.4377  -2.4351  -2.4233  -2.4166
    -2.4120  -2.4034  -2.3892  -2.3862  -2.3756  -2.3679  -2.3616  -2.3552
    -2.3461  -2.3385  -2.3277  -2.3202  -2.3130  -2.3065  -2.2984  -2.2889
    -2.2852  -2.2829  -2.2696  -2.2543  -2.2504  -2.2368  -2.2284  -2.2206
    -2.2130  -2.2087  -2.1992  -2.1816  -2.1795  -2.1719  -2.1710  -2.1676
    -2.1609  -2.1394  -2.1360  -2.1229  -2.1094  -2.0946  -2.0939  -2.0867
    -2.0850  -2.0805  -2.0660  -2.0596  -2.0465  -2.0409  -2.0288  -2.0231
    -2.0138  -2.0097  -1.9944  -1.9885  -1.9812  -1.9743  -1.9714  -1.9597
    -1.9534  -1.9458  -1.9330  -1.9282  -1.9159  -1.9131  -1.9085  -1.9042
    -1.8975  -1.8965  -1.8924  -1.8850  -1.8761  -1.8697  -1.8592  -1.8502
    -1.8462  -1.8411  -1.8315  -1.8269  -1.8205  -1.8155  -1.8131  -1.8057
    -1.8000  -1.7880  -1.7840  -1.7707  -1.7706  -1.7627  -1.7559  -1.7498
    -1.7466  -1.7398  -1.7355  -1.7287  -1.7259  -1.7180  -1.7107  -1.7036
    -1.6980  -1.6960  -1.6879  -1.6851  -1.6725  -1.6663  -1.6590  -1.6472
    -1.6371  -1.6269  -1.6201  -1.6128  -1.6091  -1.6022  -1.5908  -1.5829
    -1.5806  -1.5663  -1.5611  -1.5514  -1.5406  -1.5366  -1.5234  -1.5133
    -1.5084  -1.5049  -1.4894  -1.4878  -1.4800  -1.4780  -1.4674  -1.4549
    -1.4417  -1.4415  -1.4392  -1.4218  -1.4144  -1.4045  -1.3909  -1.3705
    -1.3623  -1.3556  -1.3524  -1.3448  -1.3399  -1.3337  -1.3269  -1.3228
    -1.3129  -1.3092  -1.3064  -1.2927  -1.2819  -1.2721  -1.2517  -1.2453
    -1.2422  -1.2326  -1.2233  -1.2119  -1.2090  -1.1980  -1.1858  -1.1733
    -1.1654  -1.1614  -1.1599  -1.1546  -1.1311  -1.1229  -1.1161  -1.1040
    -1.0964  -1.0899  -1.0800  -1.0679  -1.0601  -1.0523  -1.0505  -1.0452
    -1.0293  -1.0222  -1.0108  -0.9959  -0.9906  -0.9865  -0.9703  -0.9585
    -0.9507  -0.9488  -0.9362  -0.9317  -0.9133  -0.9126  -0.8924  -0.8869
    -0.8838  -0.8782  -0.8651  -0.8588  -0.8456  -0.8413  -0.8392  -0.8289
    -0.8221  -0.8134  -0.7982  -0.7862  -0.7762  -0.7740  -0.7563  -0.7483
    -0.7406  -0.7238  -0.7112  -0.7107  -0.7045  -0.7006  -0.6941  -0.6652
    -0.6579  -0.6259  -0.6127  -0.6040  -0.5936  -0.5897  -0.5834  -0.5629
    -0.5457  -0.5416  -0.5339  -0.5201  -0.5163  -0.5041  -0.4834  -0.4810
    -0.4726  -0.4472  -0.4403  -0.4253  -0.4217  -0.4133  -0.3954  -0.3926
    -0.3918  -0.3519  -0.3431  -0.3339  -0.3185  -0.3129  -0.3019  -0.2960
    -0.2838  -0.2692  -0.2428  -0.2271  -0.2098  -0.1705  -0.1655  -0.1458
    -0.1360  -0.1281  -0.0961  -0.0484  -0.0440  -0.0242   0.0033   0.0320
     0.0411   0.0733   0.0917   0.1093   0.1243   0.1676   0.1862   0.2768
     0.3229   0.4216   0.5485   2.4872

     highest occupied level (ev):     2.4872

!    total energy              =  -11183.36039929 Ry
     estimated scf accuracy    <       0.00000065 Ry

     The total energy is the sum of the following terms:
     one-electron contribution =  -20174.56685850 Ry
     hartree contribution      =   10730.02610070 Ry
     xc contribution           =   -2314.35632116 Ry
     ewald contribution        =     575.53667967 Ry

     convergence has been achieved in  12 iterations

     Forces acting on atoms (cartesian axes, Ry/au):

     atom    1 type  1   force =    -0.00737411    0.00629371   -0.00128476
     atom    2 type  2   force =     0.02498558   -0.01128242    0.02925983
     atom    3 type  3   force =     0.06405125    0.06798691   -0.01897212
     atom    4 type  3   force =     0.01581833    0.11773802    0.04497504
     atom    5 type  3   force =    -0.03471140    0.07388101    0.03733182
     atom    6 type  3   force =     0.05565769    0.01398215    0.04538593
     atom    7 type  3   force =    -0.01101103   -0.04251737    0.09181468
     atom    8 type  3   force =    -0.04672012   -0.03686653   -0.07240945
     atom    9 type  4   force =    -0.00705464   -0.01721795    0.00889997
     atom   10 type  4   force =    -0.03586262    0.07501350   -0.00439668
     atom   11 type  4   force =     0.07308650   -0.00281422   -0.10868456
     atom   12 type  4   force =    -0.02420956    0.00677890    0.02189524
     atom   13 type  4   force =     0.00488397   -0.00701069   -0.00127540
     atom   14 type  4   force =    -0.00721270   -0.03390730    0.02806832
     atom   15 type  4   force =     0.02116780    0.04058805    0.06876999
     atom   16 type  4   force =    -0.00039090   -0.00603885   -0.07508570
     atom   17 type  4   force =    -0.02002560   -0.02720513   -0.04922811
     atom   18 type  4   force =     0.01395789   -0.13886005   -0.01277428
     atom   19 type  4   force =     0.01859169    0.00517361   -0.02666024
     atom   20 type  4   force =     0.04594821   -0.00133918    0.01965062
     atom   21 type  4   force =    -0.01333813    0.00326826    0.00381688
     atom   22 type  4   force =    -0.02507047    0.00627813   -0.01565370
     atom   23 type  2   force =     0.01308205   -0.02931113    0.03408334
     atom   24 type  3   force =    -0.01749965   -0.05870514   -0.05311561
     atom   25 type  3   force =    -0.04383099   -0.00037267    0.07473267
     atom   26 type  4   force =    -0.08054846   -0.04021707   -0.01297550
     atom   27 type  4   force =     0.03013125   -0.02908262   -0.03087486
     atom   28 type  4   force =     0.16274982    0.17043927    0.56159854
     atom   29 type  4   force =     0.03013901    0.00710067   -0.00968785
     atom   30 type  4   force =    -0.01124576    0.08765332    0.12197752
     atom   31 type  4   force =    -0.00962732    0.01802471    0.02353754
     atom   32 type  4   force =    -0.00778315   -0.00100499    0.02759458
     atom   33 type  4   force =     0.02419188   -0.00545388    0.00088372
     atom   34 type  4   force =     0.03221483    0.00896428   -0.03539882
     atom   35 type  4   force =     0.04122617   -0.00538827   -0.06959076
     atom   36 type  2   force =    -0.02874083   -0.02242086   -0.02706437
     atom   37 type  3   force =    -0.03632364    0.07776544   -0.02754615
     atom   38 type  3   force =     0.04809861    0.02264361    0.04806968
     atom   39 type  4   force =     0.05759317    0.00404453   -0.00179275
     atom   40 type  4   force =     0.00308096    0.00606119    0.03891157
     atom   41 type  4   force =     0.02604654    0.04472337   -0.05374643
     atom   42 type  4   force =     0.05032893    0.02403322    0.01948332
     atom   43 type  4   force =     0.01083600    0.01376055   -0.00479154
     atom   44 type  4   force =    -0.00621513   -0.01560550   -0.01899349
     atom   45 type  4   force =     0.06663567   -0.02665637    0.01250441
     atom   46 type  4   force =    -0.03312642    0.02480746   -0.01347483
     atom   47 type  1   force =    -0.00630134   -0.00656611    0.01075700
     atom   48 type  1   force =     0.00348692   -0.01122629   -0.00026265
     atom   49 type  1   force =     0.01014108   -0.00085689   -0.00158959
     atom   50 type  2   force =    -0.02065073   -0.01857103    0.03307795
     atom   51 type  3   force =    -0.04967340    0.01467352   -0.00463001
     atom   52 type  3   force =     0.04113351    0.03648677    0.10827070
     atom   53 type  3   force =    -0.00148657    0.04060678   -0.03545254
     atom   54 type  3   force =    -0.00742809   -0.11857657   -0.01621442
     atom   55 type  3   force =     0.01160827    0.04235636   -0.01757407
     atom   56 type  3   force =    -0.03701703   -0.07206840    0.07882956
     atom   57 type  4   force =     0.01392340   -0.00336490   -0.01290253
     atom   58 type  4   force =     0.00892891    0.02765637    0.01715369
     atom   59 type  4   force =    -0.00635433    0.00925429   -0.00722556
     atom   60 type  4   force =     0.00409638   -0.02318698   -0.03602105
     atom   61 type  4   force =     0.03885378    0.02298412   -0.03057040
     atom   62 type  4   force =     0.00882110    0.01694560    0.00926141
     atom   63 type  4   force =     0.08375434    0.00284355    0.01801217
     atom   64 type  4   force =     0.08815197    0.03725409   -0.04252176
     atom   65 type  4   force =    -0.00792707    0.00417023   -0.00863450
     atom   66 type  4   force =    -0.01629400   -0.02609263   -0.03792999
     atom   67 type  4   force =     0.00001690    0.04756885   -0.02935196
     atom   68 type  4   force =    -0.02892311   -0.10591724   -0.00757098
     atom   69 type  4   force =    -0.02347176   -0.00918950    0.05470532
     atom   70 type  4   force =    -0.09322063    0.04112063   -0.03729727
     atom   71 type  4   force =     0.01500718   -0.00981167    0.02388185
     atom   72 type  4   force =    -0.02051173    0.01621056   -0.04300087
     atom   73 type  1   force =     0.00323261   -0.01367579    0.01517296
     atom   74 type  2   force =    -0.01707237    0.01120387    0.02915209
     atom   75 type  2   force =     0.00207669    0.04043953    0.02906035
     atom   76 type  3   force =    -0.09321848   -0.01006984    0.00365608
     atom   77 type  3   force =    -0.03041733    0.09903409    0.00434425
     atom   78 type  3   force =     0.02716264    0.06156320   -0.00094559
     atom   79 type  3   force =     0.00606315    0.00848909    0.02181221
     atom   80 type  3   force =     0.02319957   -0.01889724   -0.03703195
     atom   81 type  3   force =    -0.01751655    0.04957155    0.06283488
     atom   82 type  4   force =     0.00595302    0.00134268    0.00582573
     atom   83 type  4   force =     0.01500932   -0.01205065    0.00734388
     atom   84 type  4   force =    -0.00137738   -0.07135829   -0.03771296
     atom   85 type  4   force =    -0.00928517   -0.01350540    0.04348714
     atom   86 type  4   force =     0.00653261   -0.00648666   -0.02921033
     atom   87 type  4   force =    -0.08425589   -0.08921106    0.07923881
     atom   88 type  4   force =    -0.00496533    0.00297243    0.00523953
     atom   89 type  4   force =    -0.02561711   -0.03577749   -0.04463649
     atom   90 type  4   force =    -0.00894443   -0.00182111   -0.06236747
     atom   91 type  4   force =    -0.00029765    0.01074370    0.01654409
     atom   92 type  4   force =     0.01466746   -0.11434156   -0.01897845
     atom   93 type  4   force =     0.02183383    0.00681523    0.04664341
     atom   94 type  4   force =     0.03831052   -0.02733600    0.01867855
     atom   95 type  4   force =     0.00812608   -0.00523113    0.02561264
     atom   96 type  4   force =    -0.01300223    0.00614069   -0.01090305
     atom   97 type  1   force =    -0.00743555   -0.00211283    0.00316631
     atom   98 type  1   force =    -0.00046658    0.00959168   -0.00638338
     atom   99 type  1   force =    -0.01727779   -0.02200455   -0.00538628
     atom  100 type  2   force =    -0.03104147   -0.00518127    0.05843581
     atom  101 type  2   force =     0.02090118    0.00134191   -0.01309132
     atom  102 type  3   force =     0.04725869    0.05096205    0.06967892
     atom  103 type  3   force =    -0.01561163   -0.00406051    0.02004556
     atom  104 type  3   force =     0.02394784    0.01088365    0.04361033
     atom  105 type  3   force =    -0.00196110   -0.01200406   -0.00205874
     atom  106 type  3   force =     0.00763455    0.03600281   -0.00446317
     atom  107 type  3   force =    -0.01191685    0.07076071    0.02509606
     atom  108 type  4   force =     0.03730851   -0.01863593    0.01002250
     atom  109 type  4   force =    -0.06571990   -0.02283766   -0.01603912
     atom  110 type  4   force =     0.01423218    0.00657507   -0.01724588
     atom  111 type  4   force =    -0.00743940   -0.03605094   -0.04628241
     atom  112 type  4   force =    -0.01921195    0.01120225    0.02425849
     atom  113 type  4   force =    -0.02724709    0.01135464    0.01115369
     atom  114 type  4   force =    -0.00266183   -0.00989900    0.00810624
     atom  115 type  4   force =     0.00495294   -0.00556915    0.02111507
     atom  116 type  4   force =     0.02652631    0.01565957    0.01085232
     atom  117 type  4   force =     0.01508322    0.00021678   -0.04940380
     atom  118 type  4   force =     0.02684727   -0.00422423   -0.00357968
     atom  119 type  4   force =    -0.00967798   -0.00334091   -0.01704107
     atom  120 type  4   force =     0.00227433    0.02373325   -0.04795118
     atom  121 type  4   force =    -0.03344623    0.01133743   -0.03184501
     atom  122 type  4   force =     0.00064874    0.02761194   -0.01114314
     atom  123 type  4   force =    -0.02588786   -0.01894359   -0.06236978
     atom  124 type  4   force =     0.03766373    0.00529902    0.02900581
     atom  125 type  5   force =    -0.00200167    0.01638018   -0.00758757
     atom  126 type  5   force =    -0.06641757   -0.04701789   -0.01522661
     atom  127 type  5   force =    -0.00655131    0.01044261    0.00908826
     atom  128 type  5   force =    -0.03634598   -0.00128807    0.02402024
     atom  129 type  5   force =    -0.02440506   -0.01549898    0.04146067
     atom  130 type  5   force =    -0.07589253   -0.02193313   -0.01048960
     atom  131 type  5   force =     0.01654850   -0.03517121   -0.02667851
     atom  132 type  5   force =     0.02247313    0.00726003   -0.03715139
     atom  133 type  5   force =     0.01013540    0.05215615   -0.01272381
     atom  134 type  5   force =    -0.01075638   -0.02302640   -0.00112112
     atom  135 type  5   force =    -0.01329376   -0.00823427   -0.00033963
     atom  136 type  5   force =    -0.03402377    0.01341979    0.03045756
     atom  137 type  5   force =     0.00727192    0.02075204    0.11227780
     atom  138 type  5   force =    -0.00006808    0.00050670    0.04910621
     atom  139 type  5   force =     0.00567761    0.00841298    0.00695149
     atom  140 type  5   force =     0.02038869   -0.02083195   -0.00491327
     atom  141 type  1   force =     0.00431904   -0.00474424    0.00829700
     atom  142 type  2   force =     0.00538999    0.02690688   -0.03146036
     atom  143 type  3   force =    -0.00847866    0.01038843    0.00615499
     atom  144 type  3   force =     0.00624046   -0.00095277   -0.02825105
     atom  145 type  3   force =    -0.01312599   -0.02237635    0.03109046
     atom  146 type  3   force =     0.02739511   -0.01669815    0.04624894
     atom  147 type  3   force =    -0.02039016    0.01037641    0.00427563
     atom  148 type  3   force =    -0.00326723   -0.03436962   -0.00065218
     atom  149 type  4   force =    -0.02463922    0.00998937   -0.01682525
     atom  150 type  4   force =    -0.01526569    0.03665962    0.03207071
     atom  151 type  4   force =     0.03442337   -0.00063052   -0.03006314
     atom  152 type  4   force =     0.00796689   -0.01125351    0.00054895
     atom  153 type  4   force =     0.02235062    0.00151727    0.02154495
     atom  154 type  4   force =    -0.01619105   -0.02121302    0.02974604
     atom  155 type  4   force =     0.02779151    0.10905511   -0.01357416
     atom  156 type  4   force =     0.01052740    0.00924477   -0.01494865
     atom  157 type  4   force =     0.01199922    0.03067846    0.01296584
     atom  158 type  4   force =    -0.00273367    0.05883691    0.00831218
     atom  159 type  4   force =     0.06063347   -0.00992901   -0.01046834
     atom  160 type  4   force =    -0.02286255   -0.01183016    0.01386279
     atom  161 type  4   force =    -0.01429105   -0.00884804    0.01237711
     atom  162 type  4   force =    -0.05172753    0.01325037   -0.02299761
     atom  163 type  2   force =    -0.02930708   -0.01143205    0.04725822
     atom  164 type  3   force =     0.00862681   -0.04673655   -0.02566727
     atom  165 type  3   force =     0.03196307   -0.01245217   -0.08303198
     atom  166 type  4   force =    -0.00498266    0.01611066   -0.00694865
     atom  167 type  4   force =     0.02893741   -0.04114137    0.03401406
     atom  168 type  4   force =    -0.03815315    0.00377102   -0.00320316
     atom  169 type  4   force =     0.01739128   -0.01269034   -0.00180638
     atom  170 type  4   force =    -0.04188783   -0.02337216    0.04047660
     atom  171 type  4   force =     0.02714929    0.01562908    0.01409048
     atom  172 type  4   force =    -0.02358922   -0.01117109    0.00974440
     atom  173 type  4   force =     0.00443432    0.01867798   -0.00883800
     atom  174 type  4   force =     0.02470148   -0.01873066    0.00412761
     atom  175 type  4   force =    -0.00703858    0.02079715   -0.00655384
     atom  176 type  2   force =     0.00446305   -0.01172323   -0.01326465
     atom  177 type  3   force =    -0.02626648   -0.05001883   -0.06273995
     atom  178 type  3   force =     0.04413609    0.06693787   -0.01722347
     atom  179 type  4   force =     0.04857982    0.00067239   -0.00428066
     atom  180 type  4   force =     0.09218167   -0.04562753   -0.04826403
     atom  181 type  4   force =    -0.02358671   -0.00872349    0.02114456
     atom  182 type  4   force =    -0.00398599   -0.03950643    0.00428581
     atom  183 type  4   force =    -0.02173580   -0.02694240   -0.01419506
     atom  184 type  4   force =     0.04602577   -0.07621731   -0.06584623
     atom  185 type  4   force =     0.04511752   -0.01095130    0.04350448
     atom  186 type  4   force =    -0.03222580   -0.02031114    0.00864629
     atom  187 type  1   force =     0.00795157   -0.01248231    0.01681219
     atom  188 type  1   force =    -0.01062162    0.00738988   -0.00863647
     atom  189 type  1   force =    -0.00397330   -0.00965368    0.00359068
     atom  190 type  2   force =    -0.01953084    0.04857702   -0.05405924
     atom  191 type  3   force =     0.04742450    0.00856100    0.00011849
     atom  192 type  3   force =     0.04597249   -0.02377119   -0.00602755
     atom  193 type  3   force =     0.06483495    0.11547339    0.00414602
     atom  194 type  3   force =    -0.04846029    0.02342079   -0.00246365
     atom  195 type  3   force =    -0.05798656    0.00719657    0.03220739
     atom  196 type  3   force =    -0.02397776    0.02609034    0.05916459
     atom  197 type  4   force =    -0.00481836    0.00080613    0.00672166
     atom  198 type  4   force =    -0.04150404   -0.00453174   -0.04086409
     atom  199 type  4   force =     0.02167704   -0.02155716    0.00344898
     atom  200 type  4   force =    -0.01618840    0.02016731   -0.03356193
     atom  201 type  4   force =    -0.00741771    0.03548806   -0.03703086
     atom  202 type  4   force =    -0.00145521   -0.01422210    0.03743476
     atom  203 type  4   force =    -0.03835324    0.02789210   -0.06654221
     atom  204 type  4   force =     0.01337043    0.00300564   -0.03537857
     atom  205 type  4   force =     0.01393996   -0.02990154   -0.03739471
     atom  206 type  4   force =     0.01570282    0.00893137    0.00761773
     atom  207 type  4   force =     0.01927501   -0.01645957    0.01101041
     atom  208 type  4   force =    -0.03065851    0.02241823    0.04010070
     atom  209 type  4   force =     0.07265794   -0.01892319   -0.05997330
     atom  210 type  4   force =     0.04322613   -0.05275992    0.01734749
     atom  211 type  4   force =     0.02140960   -0.02248076    0.00560334
     atom  212 type  4   force =    -0.00115100   -0.01538351    0.02122178
     atom  213 type  1   force =    -0.00507760    0.00893915   -0.00829166
     atom  214 type  2   force =    -0.00771010   -0.00295639   -0.05722618
     atom  215 type  2   force =     0.02180618    0.00300246    0.01510687
     atom  216 type  3   force =    -0.03433425   -0.02438714   -0.08013581
     atom  217 type  3   force =     0.01754870    0.06343550   -0.03474354
     atom  218 type  3   force =     0.03188381   -0.06390565   -0.04236040
     atom  219 type  3   force =     0.00406043   -0.03243486   -0.00296165
     atom  220 type  3   force =    -0.05802877   -0.05422445   -0.01010771
     atom  221 type  3   force =     0.00358967   -0.01370988    0.00715116
     atom  222 type  4   force =     0.02950033    0.01733540   -0.00602905
     atom  223 type  4   force =     0.03415243   -0.01383666   -0.00022381
     atom  224 type  4   force =     0.01833617   -0.00641184   -0.02191752
     atom  225 type  4   force =    -0.05555849    0.02802707    0.04547138
     atom  226 type  4   force =    -0.02141895    0.01280244    0.01872866
     atom  227 type  4   force =     0.03770109    0.01096428    0.01624356
     atom  228 type  4   force =    -0.06775304   -0.02621487    0.00920379
     atom  229 type  4   force =     0.00047098    0.05960593    0.04499527
     atom  230 type  4   force =     0.02509849    0.04735498    0.02387690
     atom  231 type  4   force =    -0.03142439    0.01299411   -0.02178412
     atom  232 type  4   force =    -0.01604672   -0.00508245   -0.00888356
     atom  233 type  4   force =    -0.03435198   -0.02536016    0.00028995
     atom  234 type  4   force =     0.05821203   -0.03081648    0.00403381
     atom  235 type  4   force =     0.06321567    0.03260323    0.09442912
     atom  236 type  4   force =    -0.01003847   -0.01435723    0.02038484
     atom  237 type  1   force =     0.00230869   -0.01527815    0.00777915
     atom  238 type  1   force =     0.01113251    0.01630448    0.00939588
     atom  239 type  1   force =     0.00405193    0.00006337   -0.00391797
     atom  240 type  2   force =    -0.05486047    0.00109132    0.03826993
     atom  241 type  2   force =     0.05277112    0.04738598   -0.02191678
     atom  242 type  3   force =     0.02921047    0.01259039   -0.04964248
     atom  243 type  3   force =    -0.02097162   -0.02362203   -0.02762967
     atom  244 type  3   force =     0.02889111   -0.03113958    0.01789042
     atom  245 type  3   force =     0.05848425    0.03015332   -0.00052138
     atom  246 type  3   force =    -0.04785123    0.04168240   -0.00024081
     atom  247 type  3   force =    -0.05721658    0.07577793   -0.08358438
     atom  248 type  4   force =    -0.00785497   -0.01369656   -0.00120210
     atom  249 type  4   force =     0.01888569   -0.01951894    0.00217353
     atom  250 type  4   force =    -0.00739325   -0.03340860   -0.00803803
     atom  251 type  4   force =    -0.00665460   -0.08425580   -0.03134017
     atom  252 type  4   force =     0.00554271    0.04785757    0.01622974
     atom  253 type  4   force =    -0.01816068   -0.00190905   -0.00748523
     atom  254 type  4   force =    -0.06102545   -0.01013366    0.05356006
     atom  255 type  4   force =     0.01303686   -0.01780888   -0.01354999
     atom  256 type  4   force =    -0.01212809   -0.01588244    0.00957065
     atom  257 type  4   force =     0.00815275    0.00272335    0.05340873
     atom  258 type  4   force =    -0.01740692   -0.01221883   -0.01016900
     atom  259 type  4   force =    -0.02231155   -0.02145968    0.02292797
     atom  260 type  4   force =    -0.00287450    0.07796596    0.03322460
     atom  261 type  4   force =     0.02080933   -0.03852402    0.01653338
     atom  262 type  4   force =     0.07117169   -0.03658803    0.04284484
     atom  263 type  4   force =     0.01905898    0.01035445    0.00731358
     atom  264 type  4   force =    -0.00870724   -0.00124972   -0.06245820
     atom  265 type  5   force =    -0.08988740    0.00870664    0.04456877
     atom  266 type  5   force =     0.00596209   -0.01978035   -0.00143710
     atom  267 type  5   force =    -0.05582076    0.10985472    0.05970912
     atom  268 type  5   force =     0.01076881    0.00966801    0.02086682
     atom  269 type  5   force =    -0.00228917   -0.01784327   -0.00202198
     atom  270 type  5   force =     0.03791302    0.02597880    0.03826222
     atom  271 type  5   force =    -0.01444087    0.00230379   -0.00577813
     atom  272 type  5   force =    -0.05364887    0.02090553    0.05175265
     atom  273 type  5   force =    -0.00178439    0.01666670   -0.00850496
     atom  274 type  5   force =    -0.03506308   -0.05764633   -0.01555464
     atom  275 type  5   force =    -0.02699321   -0.00663348    0.01897805
     atom  276 type  5   force =    -0.02553600   -0.01280122   -0.04424323
     atom  277 type  5   force =     0.04670005    0.04195438    0.01194241
     atom  278 type  5   force =    -0.02487529    0.00018886    0.01747003
     atom  279 type  5   force =     0.01029853   -0.00023233    0.00039200
     atom  280 type  5   force =    -0.01718630    0.00278890    0.00894161
     atom  281 type  4   force =     0.02476358   -0.02890712    0.03377063
     atom  282 type  5   force =    -0.03240526    0.03362839   -0.02377348
     atom  283 type  5   force =    -0.00533371   -0.00336296   -0.00111763
     atom  284 type  4   force =    -0.03322193   -0.04250927   -0.02652664
     atom  285 type  5   force =     0.00343003    0.03916469    0.01072971
     atom  286 type  5   force =     0.02913938   -0.00926941    0.02178914
     atom  287 type  4   force =     0.06421691   -0.00029650   -0.04443074
     atom  288 type  5   force =    -0.02227451   -0.02380309    0.03237321
     atom  289 type  5   force =    -0.03335184    0.03544582    0.02039855
     atom  290 type  4   force =     0.03608264    0.01583318    0.00354012
     atom  291 type  5   force =    -0.06529325   -0.03443190   -0.00518836
     atom  292 type  5   force =     0.01071075    0.00568837    0.00893165
     atom  293 type  4   force =     0.01476637    0.02922437    0.00793181
     atom  294 type  5   force =     0.00752758   -0.06762798   -0.01099940
     atom  295 type  5   force =    -0.01888011    0.05224977    0.00845141
     atom  296 type  4   force =    -0.01961371   -0.05752834   -0.04341433
     atom  297 type  5   force =     0.00990691    0.01013235    0.03468130
     atom  298 type  5   force =    -0.00035506    0.05602352    0.01296043
     atom  299 type  4   force =     0.05017131    0.00534783   -0.04485499
     atom  300 type  5   force =    -0.01117194    0.00633115    0.02230488
     atom  301 type  5   force =    -0.03007404   -0.00974615    0.02961523
     atom  302 type  4   force =     0.03863876   -0.01210887    0.04791003
     atom  303 type  5   force =     0.02056179    0.00281555   -0.01588639
     atom  304 type  5   force =    -0.06260564    0.00505930   -0.02982811
     atom  305 type  4   force =     0.11633318   -0.06712824   -0.06044827
     atom  306 type  5   force =    -0.09196737    0.08697943    0.03452739
     atom  307 type  5   force =    -0.01798024   -0.02349628    0.01500151
     atom  308 type  4   force =     0.03651357   -0.00189143    0.00966549
     atom  309 type  5   force =     0.01325113    0.04103782   -0.00415303
     atom  310 type  5   force =    -0.04666362   -0.03144192   -0.00301266
     atom  311 type  4   force =     0.10312397    0.03061924   -0.02720230
     atom  312 type  5   force =    -0.09183036   -0.01157054    0.04194231
     atom  313 type  5   force =    -0.00338475   -0.02008349   -0.00696857
     atom  314 type  4   force =     0.03490344   -0.03735600   -0.02712677
     atom  315 type  5   force =    -0.01912803    0.03445310    0.01526142
     atom  316 type  5   force =    -0.01454747   -0.00024350   -0.00959171
     atom  317 type  4   force =    -0.00540568   -0.08849872   -0.01536407
     atom  318 type  5   force =     0.00434916    0.09691999   -0.02378351
     atom  319 type  5   force =    -0.00222899    0.00294940    0.03983645
     atom  320 type  4   force =     0.00266787    0.00022378    0.08306995
     atom  321 type  5   force =     0.00805165   -0.01596416   -0.10863963
     atom  322 type  5   force =     0.00356872   -0.00278352    0.00438697
     atom  323 type  4   force =     0.00784782    0.02926121    0.01506282
     atom  324 type  5   force =    -0.01453421   -0.01156291   -0.02538518
     atom  325 type  5   force =     0.01447874   -0.01688961    0.00583088
     atom  326 type  4   force =    -0.00825356    0.00680854   -0.03116659
     atom  327 type  5   force =    -0.00012644    0.00806456    0.01111510
     atom  328 type  5   force =    -0.00040846   -0.00847141    0.03302893
     atom  329 type  4   force =    -0.02021705   -0.10755128   -0.11707819
     atom  330 type  5   force =     0.00235538    0.07703103   -0.04336017
     atom  331 type  5   force =     0.02044848   -0.04461921   -0.06785574
     atom  332 type  4   force =    -0.04988659   -0.02722843    0.00597423
     atom  333 type  5   force =     0.02463883    0.01830404    0.00584878
     atom  334 type  5   force =     0.01267356    0.00681259   -0.00888722
     atom  335 type  4   force =     0.11806705   -0.00024421    0.02105666
     atom  336 type  5   force =    -0.04034621    0.03314478    0.02337685
     atom  337 type  5   force =    -0.09392026   -0.03260280   -0.04121878
     atom  338 type  4   force =    -0.03944779    0.06165013    0.04370921
     atom  339 type  5   force =     0.05100881   -0.03835929   -0.04431295
     atom  340 type  5   force =    -0.00716226   -0.00925962    0.00051482
     atom  341 type  4   force =    -0.01354648   -0.00154823   -0.02970721
     atom  342 type  5   force =     0.02135944   -0.00959208    0.03400512
     atom  343 type  5   force =    -0.00052306    0.01535473    0.00535731
     atom  344 type  4   force =    -0.00049148   -0.00818848   -0.00923479
     atom  345 type  5   force =     0.00412734   -0.00376963    0.00221038
     atom  346 type  5   force =     0.01518811    0.01574462    0.02301776
     atom  347 type  4   force =     0.00525175   -0.06574690    0.02003264
     atom  348 type  5   force =    -0.01161592    0.03988807   -0.02600992
     atom  349 type  5   force =     0.00813977    0.02252435   -0.00499162
     atom  350 type  4   force =    -0.02647024   -0.00511261    0.06615598
     atom  351 type  5   force =    -0.00610262   -0.00589709   -0.00864542
     atom  352 type  5   force =     0.01948770    0.01668069   -0.06054585
     atom  353 type  4   force =    -0.03119623   -0.04347038   -0.00281497
     atom  354 type  5   force =     0.01677685    0.05947289   -0.03264646
     atom  355 type  5   force =     0.01922378   -0.00637084    0.02537662
     atom  356 type  4   force =     0.01257392    0.02201007    0.01123386
     atom  357 type  5   force =    -0.00060705   -0.01999119   -0.00888909
     atom  358 type  5   force =    -0.00467994   -0.01907705   -0.01228885
     atom  359 type  4   force =    -0.00267802   -0.00998988   -0.07405585
     atom  360 type  5   force =    -0.00623343    0.02737390    0.05336181
     atom  361 type  5   force =     0.00439118   -0.01745046    0.02366760
     atom  362 type  4   force =    -0.01003092    0.05389218   -0.01539012
     atom  363 type  5   force =     0.01551568   -0.04235986    0.01635603
     atom  364 type  5   force =    -0.00413911   -0.00177852    0.00282972
     atom  365 type  4   force =    -0.01197808    0.01842934    0.00040008
     atom  366 type  5   force =     0.00641870   -0.00483741   -0.00470269
     atom  367 type  5   force =     0.00473476    0.00131177   -0.00277585
     atom  368 type  4   force =     0.00583893   -0.00061011    0.00553587
     atom  369 type  5   force =    -0.00550554    0.00291730    0.00310867
     atom  370 type  5   force =    -0.02022028   -0.00406521   -0.01128343
     atom  371 type  4   force =    -0.02982561   -0.00072833    0.00137255
     atom  372 type  5   force =     0.02375636   -0.01964136    0.00420030
     atom  373 type  5   force =    -0.00136199    0.01139599   -0.00250064
     atom  374 type  4   force =     0.02751585   -0.01979021    0.00675563
     atom  375 type  5   force =    -0.01005201    0.00575276   -0.01320503
     atom  376 type  5   force =    -0.01178772    0.02446070    0.00973079
     atom  377 type  4   force =     0.01662053    0.05030841    0.04832436
     atom  378 type  5   force =     0.00004761   -0.02503265   -0.02108460
     atom  379 type  5   force =    -0.02842415   -0.03175498   -0.02249080
     atom  380 type  4   force =     0.08317827    0.00235345    0.00806767
     atom  381 type  5   force =    -0.04045222   -0.00507789    0.01448313
     atom  382 type  5   force =    -0.03050856    0.00333074   -0.01958818
     atom  383 type  4   force =     0.00846277    0.01657220    0.03711511
     atom  384 type  5   force =     0.00019795    0.01021006   -0.01313398
     atom  385 type  5   force =    -0.02411207   -0.04130697   -0.01473282
     atom  386 type  4   force =    -0.01326558   -0.02780263   -0.00888937
     atom  387 type  5   force =     0.03215023    0.03963846   -0.02077822
     atom  388 type  5   force =    -0.01903363   -0.01162146    0.00653212
     atom  389 type  4   force =     0.01446587   -0.02889495    0.02498199
     atom  390 type  5   force =     0.00215098    0.03061251   -0.02146855
     atom  391 type  5   force =    -0.00141624   -0.00715374   -0.00483968
     atom  392 type  4   force =    -0.00742061    0.01360469   -0.03853162
     atom  393 type  5   force =     0.01551644    0.02464700    0.00810393
     atom  394 type  5   force =    -0.00870546   -0.03357188    0.02149338
     atom  395 type  4   force =    -0.01267896    0.00292545   -0.01642730
     atom  396 type  5   force =     0.02651095    0.00691449    0.02307399
     atom  397 type  5   force =    -0.00144719   -0.00712359    0.02296206
     atom  398 type  4   force =    -0.01429157   -0.03561365   -0.06067145
     atom  399 type  5   force =     0.02318061    0.03620079    0.03875154
     atom  400 type  5   force =     0.00136720    0.01007594   -0.00118925
     atom  401 type  4   force =     0.00588995    0.01037337    0.00717590
     atom  402 type  5   force =    -0.00319844   -0.01722058    0.00582977
     atom  403 type  5   force =    -0.01060991   -0.00212436   -0.00901755
     atom  404 type  4   force =     0.00038460    0.02074006   -0.00601961
     atom  405 type  5   force =     0.02600268   -0.01300994   -0.01270449
     atom  406 type  5   force =    -0.00776479   -0.02411178    0.01546625
     atom  407 type  4   force =    -0.03684950    0.01702537    0.05261662
     atom  408 type  5   force =     0.03901644    0.01299127   -0.05238256
     atom  409 type  5   force =    -0.00355917   -0.01658522   -0.00477597
     atom  410 type  4   force =    -0.10467517   -0.27572634   -0.67625991
     atom  411 type  5   force =    -0.00883158    0.00847585   -0.03241376
     atom  412 type  5   force =    -0.05101284    0.00836867   -0.02630958
     atom  413 type  4   force =     0.00652562    0.00395081    0.02376145
     atom  414 type  5   force =    -0.02675612    0.01408863    0.01607943
     atom  415 type  5   force =     0.01002132   -0.02077921   -0.03021705
     atom  416 type  4   force =     0.03380173    0.02936890    0.04393189
     atom  417 type  5   force =    -0.00978921    0.01260821   -0.02175104
     atom  418 type  5   force =    -0.00890183   -0.02196785   -0.02561622
     atom  419 type  4   force =    -0.06583510    0.03281503   -0.08052361
     atom  420 type  5   force =     0.00169082    0.01746603   -0.01311426
     atom  421 type  5   force =     0.06265861   -0.05302570    0.08099315
     atom  422 type  4   force =     0.02227336    0.02754610   -0.02112579
     atom  423 type  5   force =    -0.00735187   -0.01168681    0.00210550
     atom  424 type  5   force =    -0.01343995   -0.01680470   -0.00584401
     atom  425 type  4   force =     0.00461719    0.01590327   -0.03612614
     atom  426 type  5   force =    -0.00824855   -0.01021101    0.01157188
     atom  427 type  5   force =     0.01971089   -0.00410666    0.00786686
     atom  428 type  4   force =    -0.00596438   -0.00386348   -0.02767927
     atom  429 type  5   force =    -0.00435233    0.00541894   -0.00038684
     atom  430 type  5   force =    -0.01443234   -0.01131111    0.00056675
     atom  431 type  4   force =     0.01981090   -0.02057991    0.02575507
     atom  432 type  5   force =     0.00264815    0.01114276    0.00992568
     atom  433 type  5   force =    -0.02439282    0.01089983   -0.02935439
     atom  434 type  4   force =    -0.01739641   -0.00643016   -0.00996636
     atom  435 type  5   force =     0.01100884    0.00490085    0.03560238
     atom  436 type  5   force =    -0.00404616    0.00228741   -0.00089048
     atom  437 type  4   force =     0.00752465    0.02105379   -0.04776134
     atom  438 type  5   force =     0.01533271   -0.02550183    0.03474892
     atom  439 type  5   force =    -0.01766713    0.00173280    0.01343625
     atom  440 type  4   force =     0.01052685    0.02732212   -0.00317129
     atom  441 type  5   force =    -0.00341743   -0.03763681    0.00161067
     atom  442 type  5   force =     0.00573671    0.00721899   -0.00716230
     atom  443 type  4   force =    -0.05163678    0.01629703    0.07805513
     atom  444 type  5   force =     0.03162894   -0.00703279   -0.00071933
     atom  445 type  5   force =     0.02652206   -0.01622305   -0.06525409
     atom  446 type  4   force =     0.00560748    0.00000574   -0.02829794
     atom  447 type  5   force =    -0.03620183    0.00826908    0.05655466
     atom  448 type  5   force =     0.01523525   -0.00173890   -0.02593456
     atom  449 type  4   force =     0.01570741   -0.00387622   -0.03115560
     atom  450 type  5   force =     0.00441767   -0.01388708    0.03016701
     atom  451 type  5   force =    -0.02182651    0.00505092    0.00316531
     atom  452 type  4   force =    -0.03325416   -0.05043672    0.07339360
     atom  453 type  5   force =     0.03536184    0.07472373   -0.05693849
     atom  454 type  5   force =    -0.01152983   -0.00239381   -0.01592846
     atom  455 type  4   force =    -0.00589475    0.00449210    0.01085113
     atom  456 type  5   force =    -0.00734267    0.00066146    0.01097180
     atom  457 type  5   force =     0.01429558   -0.00709221   -0.01038403
     atom  458 type  4   force =    -0.00139311   -0.00295499    0.03058159
     atom  459 type  5   force =     0.01194786    0.00885085   -0.00483687
     atom  460 type  5   force =    -0.02133034   -0.00396693   -0.00751848
     atom  461 type  4   force =     0.06484410   -0.01075037    0.02604128
     atom  462 type  5   force =    -0.07705238    0.00145196   -0.02490098
     atom  463 type  5   force =     0.02263399   -0.01408812    0.00129629
     atom  464 type  4   force =     0.01786025    0.04144199   -0.03109808
     atom  465 type  5   force =     0.00858216    0.01933352    0.00258148
     atom  466 type  5   force =    -0.01900978   -0.05547222    0.03060492
     atom  467 type  4   force =    -0.01025789    0.01667198    0.02343424
     atom  468 type  5   force =     0.02548229   -0.02582385    0.01365351
     atom  469 type  5   force =    -0.00422588    0.00809499   -0.02688574
     atom  470 type  4   force =     0.03059126    0.03597992   -0.04971882
     atom  471 type  5   force =     0.00840812   -0.02291353    0.00205505
     atom  472 type  5   force =    -0.03006635   -0.01870245    0.05054972
     atom  473 type  4   force =    -0.04405855   -0.00677448    0.01209344
     atom  474 type  5   force =    -0.01888325   -0.02219090    0.00772901
     atom  475 type  5   force =     0.06091012    0.04717871   -0.01418783
     atom  476 type  4   force =    -0.06367244   -0.02321047    0.04383958
     atom  477 type  5   force =     0.05757902    0.00252121    0.00679323
     atom  478 type  5   force =     0.00518731    0.00338754   -0.03533511
     atom  479 type  4   force =     0.01435304    0.03822924    0.00432315
     atom  480 type  5   force =    -0.01112927   -0.01988210   -0.01023009
     atom  481 type  5   force =    -0.00014848   -0.02604144    0.01374196
     atom  482 type  4   force =     0.10527869    0.04783573    0.00139985
     atom  483 type  5   force =    -0.05445148   -0.02499795   -0.01769312
     atom  484 type  5   force =    -0.05216235   -0.02406158   -0.00726642
     atom  485 type  4   force =    -0.02034650   -0.01304104   -0.00513115
     atom  486 type  5   force =     0.00644736    0.01985490    0.00185155
     atom  487 type  5   force =    -0.00298682   -0.00905020    0.00237804
     atom  488 type  4   force =    -0.00767967   -0.02273364   -0.01458173
     atom  489 type  5   force =     0.01210076    0.00786115    0.01879024
     atom  490 type  5   force =    -0.01116727    0.00532971   -0.01369986
     atom  491 type  4   force =    -0.06179154    0.02985537    0.02114656
     atom  492 type  5   force =     0.02700774   -0.04893004   -0.03750449
     atom  493 type  5   force =     0.05243831    0.01799405    0.01904159

     Total force =     1.572596     Total SCF correction =     0.000533
     Message from routine punch:
     Nothing written, as per user request (disk_io='none')

     init_run     :     33.47s CPU     34.15s WALL (       1 calls)
     electrons    :    749.35s CPU    760.77s WALL (       1 calls)
     forces       :      8.96s CPU      9.31s WALL (       1 calls)

     Called by init_run:
     wfcinit      :     29.46s CPU     29.98s WALL (       1 calls)
     potinit      :      0.92s CPU      1.01s WALL (       1 calls)
     hinit0       :      2.08s CPU      2.09s WALL (       1 calls)

     Called by electrons:
     c_bands      :    628.04s CPU    637.47s WALL (      12 calls)
     sum_band     :    118.18s CPU    119.28s WALL (      12 calls)
     v_of_rho     :      2.51s CPU      3.27s WALL (      13 calls)
     mix_rho      :      0.52s CPU      0.68s WALL (      12 calls)

     Called by c_bands:
     init_us_2    :      1.48s CPU      1.60s WALL (      25 calls)
     init_us_2:cp :      1.48s CPU      1.60s WALL (      25 calls)
     regterg      :    625.05s CPU    633.32s WALL (      12 calls)

     Called by *egterg:
     rdiaghg      :      6.85s CPU      7.47s WALL (      43 calls)
     h_psi        :    550.51s CPU    556.18s WALL (      44 calls)
     g_psi        :      0.16s CPU      0.16s WALL (      31 calls)

     Called by h_psi:
     h_psi:calbec :     40.62s CPU     41.68s WALL (      44 calls)
     vloc_psi     :    119.06s CPU    120.14s WALL (      44 calls)
     add_vuspsi   :     35.62s CPU     36.09s WALL (      44 calls)
     h_psi_meta   :    354.63s CPU    357.68s WALL (      44 calls)

     General routines
     calbec       :     46.25s CPU     47.50s WALL (      48 calls)
     fft          :      3.27s CPU      3.85s WALL (     129 calls)
     ffts         :      0.18s CPU      0.25s WALL (      24 calls)
     fftw         :    566.53s CPU    571.35s WALL (  151480 calls)
     interpolate  :      0.00s CPU      0.00s WALL (      13 calls)

     Parallel routines

     PWSCF        :  13m11.99s CPU  13m24.86s WALL


   This run was terminated on:  12:51:33   9Mar2025            

=------------------------------------------------------------------------------=
   JOB DONE.
=------------------------------------------------------------------------------=
