
     Program PWSCF v.7.3 starts on  8Mar2025 at 13:47:34 

     This program is part of the open-source Quantum ESPRESSO suite
     for quantum simulation of materials; please cite
         "P. Giannozzi et al., J. Phys.:Condens. Matter 21 395502 (2009);
         "P. Giannozzi et al., J. Phys.:Condens. Matter 29 465901 (2017);
         "P. Giannozzi et al., J. Chem. Phys. 152 154105 (2020);
          URL http://www.quantum-espresso.org", 
     in publications or presentations arising from this work. More details at
     http://www.quantum-espresso.org/quote

     Parallel version (MPI & OpenMP), running on     120 processor cores
     Number of MPI processes:               120
     Threads/MPI process:                     1

     MPI processes distributed on     1 nodes
     463548 MiB available memory on the printing compute node when the environment starts

     Reading input from pw-water-9.in
Warning: card &CELL ignored
Warning: card / ignored
Warning: card &FCP ignored
Warning: card / ignored
Warning: card &RISM ignored
Warning: card / ignored

     Current dimensions of program PWSCF are:
     Max number of different atomic species (ntypx) = 10
     Max number of k-points (npk) =  40000
     Max angular momentum in pseudopotentials (lmaxx) =  4

     IMPORTANT: XC functional enforced from input :
     Exchange-correlation= SCAN
                           (   0   0   0   0   0 263 267)
     Any further DFT definition will be discarded
     Please, verify this is what you really want


     gamma-point specific algorithms are used

     R & G space division:  proc/nbgrp/npool/nimage =     120
     Subspace diagonalization in iterative solution of the eigenvalue problem:
     one sub-group per band group will be used
     ELPA distributed-memory algorithm (size of sub-group: 10* 10 procs)


     Parallelization info
     --------------------
     sticks:   dense  smooth     PW     G-vecs:    dense   smooth      PW
     Min         223     223     55                53054    53054    6618
     Max         226     226     58                53096    53096    6642
     Sum       27001   27001   6747              6368777  6368777  796049

     Using Slab Decomposition



     bravais-lattice index     =            0
     lattice parameter (alat)  =      27.1743  a.u.
     unit-cell volume          =   40863.0649 (a.u.)^3
     number of atoms/cell      =          493
     number of atomic types    =            5
     number of electrons       =      2104.00
     number of Kohn-Sham states=         1052
     kinetic-energy cutoff     =     110.0000  Ry
     charge density cutoff     =     440.0000  Ry
     scf convergence threshold =      1.0E-06
     mixing beta               =       0.5000
     number of iterations used =            8  plain     mixing
     Exchange-correlation= SCAN
                           (   0   0   0   0   0 263 267)

     celldm(1)=  27.174262  celldm(2)=   0.000000  celldm(3)=   0.000000
     celldm(4)=   0.000000  celldm(5)=   0.000000  celldm(6)=   0.000000

     crystal axes: (cart. coord. in units of alat)
               a(1) = (   1.000000   0.000000   0.000000 )  
               a(2) = (   0.263718   1.045271   0.000000 )  
               a(3) = (  -1.114529  -1.155389   1.948179 )  

     reciprocal axes: (cart. coord. in units 2 pi/alat)
               b(1) = (  1.000000 -0.252296  0.422460 )  
               b(2) = ( -0.000000  0.956690  0.567375 )  
               b(3) = (  0.000000  0.000000  0.513300 )  


     PseudoPot. # 1 for K  read from file:
     /scratch/zhouwq/DFT-feldspar-surface/script-dft/K_ONCV_PBE_sr.upf
     MD5 check sum: 1b7a13238029e3acac828725779bbc07
     Pseudo is Norm-conserving, Zval =  9.0
     Generated using ONCVPSP code by D. R. Hamann
     Using radial grid of 2222 points,  6 beta functions with: 
                l(1) =   0
                l(2) =   0
                l(3) =   1
                l(4) =   1
                l(5) =   2
                l(6) =   2

     PseudoPot. # 2 for Al read from file:
     /scratch/zhouwq/DFT-feldspar-surface/script-dft/Al_ONCV_PBE_sr.upf
     MD5 check sum: f1d308f5052db2acb2ab62005e7ebd82
     Pseudo is Norm-conserving, Zval = 11.0
     Generated using ONCVPSP code by D. R. Hamann
     Using radial grid of 1876 points,  4 beta functions with: 
                l(1) =   0
                l(2) =   0
                l(3) =   1
                l(4) =   1

     PseudoPot. # 3 for Si read from file:
     /scratch/zhouwq/DFT-feldspar-surface/script-dft/Si_ONCV_PBE_sr.upf
     MD5 check sum: 8553c464762ac42b85b1eed164b4d029
     Pseudo is Norm-conserving, Zval =  4.0
     Generated using ONCVPSP code by D. R. Hamann
     Using radial grid of 1510 points,  4 beta functions with: 
                l(1) =   0
                l(2) =   0
                l(3) =   1
                l(4) =   1

     PseudoPot. # 4 for O  read from file:
     /scratch/zhouwq/DFT-feldspar-surface/script-dft/O_ONCV_PBE_sr.upf
     MD5 check sum: 503208cc3dd01d9a06cc7045986f7d49
     Pseudo is Norm-conserving, Zval =  6.0
     Generated using ONCVPSP code by D. R. Hamann
     Using radial grid of  936 points,  4 beta functions with: 
                l(1) =   0
                l(2) =   0
                l(3) =   1
                l(4) =   1

     PseudoPot. # 5 for H  read from file:
     /scratch/zhouwq/DFT-feldspar-surface/script-dft/H_ONCV_PBE_sr.upf
     MD5 check sum: 8975ef619c0c80d0ef0fa21f3286b90d
     Pseudo is Norm-conserving, Zval =  1.0
     Generated using ONCVPSP code by D. R. Hamann
     Using radial grid of 1166 points,  2 beta functions with: 
                l(1) =   0
                l(2) =   0

     atomic species   valence    mass     pseudopotential
     K                 9.00    39.09830     K ( 1.00)
     Al               11.00    26.98154     Al( 1.00)
     Si                4.00    28.08500     Si( 1.00)
     O                 6.00    15.99900     O ( 1.00)
     H                 1.00     1.00800     H ( 1.00)

     No symmetry found



   Cartesian axes

     site n.     atom                  positions (alat units)
         1        K      tau(   1) = (  -0.9159798  -0.9152606   2.7536399  )
         2        Al     tau(   2) = (  -0.9065721  -0.6162567   2.7809534  )
         3        Si     tau(   3) = (  -1.0448053  -0.8622169   2.9591839  )
         4        Si     tau(   4) = (  -1.4457796  -1.6650101   2.8111502  )
         5        Si     tau(   5) = (  -1.1882413  -0.8286721   2.8070590  )
         6        Si     tau(   6) = (  -1.3052853  -1.6934298   2.9622899  )
         7        Si     tau(   7) = (  -0.9685914  -0.7359487   2.6132040  )
         8        Si     tau(   8) = (  -1.3080420  -1.5258758   2.6990297  )
         9        O      tau(   9) = (  -1.5471618  -1.6297042   2.8280993  )
        10        O      tau(  10) = (  -1.2039674  -0.8944463   2.7194354  )
        11        O      tau(  11) = (  -1.2754748  -0.8325028   2.8764976  )
        12        O      tau(  12) = (  -1.2164814  -1.6771273   2.8941370  )
        13        O      tau(  13) = (  -0.9231639  -0.6705175   2.5313916  )
        14        O      tau(  14) = (  -1.3925819  -1.5875003   2.7492315  )
        15        O      tau(  15) = (  -1.0609351  -0.4931217   2.5871875  )
        16        O      tau(  16) = (  -0.9208563  -0.7213534   2.7164686  )
        17        O      tau(  17) = (  -1.0537714  -0.7573278   2.9958153  )
        18        O      tau(  18) = (  -1.1693076  -0.7244735   2.7692643  )
        19        O      tau(  19) = (  -1.0748584  -0.6964926   2.6035856  )
        20        O      tau(  20) = (  -1.2094764  -1.5574610   2.7356332  )
        21        O      tau(  21) = (  -1.0916559  -0.8631447   2.8560418  )
        22        O      tau(  22) = (  -1.4068980  -1.6690599   2.9174150  )
        23        Al     tau(  23) = (  -1.0372124  -1.1306399   2.8087344  )
        24        Si     tau(  24) = (  -1.1902905  -1.0085325   2.7022636  )
        25        Si     tau(  25) = (  -1.0889282  -1.2395551   2.6367937  )
        26        O      tau(  26) = (  -1.4250231  -1.1215565   2.8291124  )
        27        O      tau(  27) = (  -0.9554527  -0.8470891   2.5906385  )
        28        O      tau(  28) = (  -1.0693287  -1.3424127   2.5985982  )
        29        O      tau(  29) = (  -1.2805234  -1.0633342   2.7471831  )
        30        O      tau(  30) = (  -1.0287667  -1.1681121   2.5675999  )
        31        O      tau(  31) = (  -1.0661977  -1.2356229   2.7461923  )
        32        O      tau(  32) = (  -1.1850549  -1.0174360   2.5888852  )
        33        O      tau(  33) = (  -1.0954082  -1.0377697   2.7554434  )
        34        O      tau(  34) = (  -1.2023022  -1.2129190   2.6150242  )
        35        O      tau(  35) = (  -1.8094573  -1.9570232   3.6575227  )
        36        Al     tau(  36) = (  -1.5809285  -1.1268062   3.4594541  )
        37        Si     tau(  37) = (  -1.4297417  -1.2556393   3.5424632  )
        38        Si     tau(  38) = (  -1.7881300  -2.0605349   3.6266301  )
        39        O      tau(  39) = (  -1.1914717  -1.1590057   3.4111949  )
        40        O      tau(  40) = (  -1.6562123  -1.4204313   3.6691004  )
        41        O      tau(  41) = (  -1.3359474  -1.1937853   3.5090547  )
        42        O      tau(  42) = (  -1.8519438  -2.1290821   3.6911037  )
        43        O      tau(  43) = (  -1.8167383  -2.0689666   3.5168140  )
        44        O      tau(  44) = (  -1.4280768  -1.2455169   3.6528804  )
        45        O      tau(  45) = (  -1.5288928  -1.2228876   3.5049691  )
        46        O      tau(  46) = (  -1.6771269  -2.0836217   3.6357699  )
        47        K      tau(  47) = (  -1.7026808  -1.3308155   3.4996367  )
        48        K      tau(  48) = (  -1.3190778  -1.6991224   3.2443974  )
        49        K      tau(  49) = (  -1.8390101  -1.8658243   3.5000096  )
        50        Al     tau(  50) = (  -1.7053508  -1.6350356   3.4585023  )
        51        Si     tau(  51) = (  -1.5747179  -1.4055494   3.2831383  )
        52        Si     tau(  52) = (  -1.4314111  -1.6422283   3.4339051  )
        53        Si     tau(  53) = (  -1.4302527  -1.4377974   3.4340109  )
        54        Si     tau(  54) = (  -1.5639976  -1.6169981   3.2784181  )
        55        Si     tau(  55) = (  -1.6459569  -1.5299193   3.6326027  )
        56        Si     tau(  56) = (  -1.5677538  -1.7711339   3.5544473  )
        57        O      tau(  57) = (  -1.3238478  -1.6629494   3.4281218  )
        58        O      tau(  58) = (  -1.4002183  -1.3621443   3.5156507  )
        59        O      tau(  59) = (  -1.5599534  -1.8845384   3.5345592  )
        60        O      tau(  60) = (  -1.5794962  -1.6804683   3.1870541  )
        61        O      tau(  61) = (  -1.3493444  -1.4435813   3.3575031  )
        62        O      tau(  62) = (  -1.6494772  -1.6322313   3.3524211  )
        63        O      tau(  63) = (  -1.7041754  -1.5930427   3.7088600  )
        64        O      tau(  64) = (  -1.4824274  -1.7240825   3.4894505  )
        65        O      tau(  65) = (  -1.5495208  -1.7624762   3.6675140  )
        66        O      tau(  66) = (  -1.6942155  -1.5360227   3.5295440  )
        67        O      tau(  67) = (  -1.5529235  -1.5100410   3.2415029  )
        68        O      tau(  68) = (  -1.4438632  -1.5398714   3.4852313  )
        69        O      tau(  69) = (  -1.5400507  -1.5656543   3.6391263  )
        70        O      tau(  70) = (  -1.6663414  -1.7274181   3.5324663  )
        71        O      tau(  71) = (  -1.5255752  -1.4041410   3.3917131  )
        72        O      tau(  72) = (  -1.4637743  -1.6415162   3.3249240  )
        73        K      tau(  73) = (  -1.1805104  -1.1892857   3.2258618  )
        74        Al     tau(  74) = (  -1.3249363  -0.8510466   2.9807085  )
        75        Al     tau(  75) = (  -1.4330023  -1.9290941   3.2666066  )
        76        Si     tau(  76) = (  -1.2940052  -1.1221220   3.4367383  )
        77        Si     tau(  77) = (  -1.7085741  -1.9293558   3.2874744  )
        78        Si     tau(  78) = (  -1.4513860  -1.0924003   3.2865337  )
        79        Si     tau(  79) = (  -1.5753243  -1.9554298   3.4459337  )
        80        Si     tau(  80) = (  -1.1789060  -0.9857592   3.0862052  )
        81        Si     tau(  81) = (  -1.5744359  -1.7955565   3.1717804  )
        82        O      tau(  82) = (  -0.9368665  -0.8902001   2.9398357  )
        83        O      tau(  83) = (  -1.8144238  -1.9019142   3.2962690  )
        84        O      tau(  84) = (  -1.4588369  -1.1654602   3.1984927  )
        85        O      tau(  85) = (  -1.5429047  -1.0986319   3.3475228  )
        86        O      tau(  86) = (  -1.4860373  -1.9441579   3.3768902  )
        87        O      tau(  87) = (  -1.0834247  -0.9395901   3.0359923  )
        88        O      tau(  88) = (  -1.6571833  -1.8411879   3.2347678  )
        89        O      tau(  89) = (  -1.5824939  -1.8103715   3.0640405  )
        90        O      tau(  90) = (  -1.1776989  -0.9865045   3.1977134  )
        91        O      tau(  91) = (  -1.5740867  -2.0656968   3.4857823  )
        92        O      tau(  92) = (  -1.4343913  -0.9882687   3.2352632  )
        93        O      tau(  93) = (  -1.2700031  -0.9509935   3.0298527  )
        94        O      tau(  94) = (  -1.4720262  -1.8278864   3.2086845  )
        95        O      tau(  95) = (  -1.3529891  -1.1150957   3.3393461  )
        96        O      tau(  96) = (  -1.6668897  -1.9319267   3.3918745  )
        97        K      tau(  97) = (  -1.4338952  -1.0684354   3.0151579  )
        98        K      tau(  98) = (  -1.0668876  -1.4407395   2.7504171  )
        99        K      tau(  99) = (  -1.5577584  -1.5992485   3.0301700  )
       100        Al     tau( 100) = (  -1.2886395  -1.4070961   3.2526131  )
       101        Al     tau( 101) = (  -1.4578407  -1.3782006   2.9806362  )
       102        Si     tau( 102) = (  -1.3210022  -1.1452732   2.8132932  )
       103        Si     tau( 103) = (  -1.1758061  -1.3687456   2.9629133  )
       104        Si     tau( 104) = (  -1.1730326  -1.1684276   2.9737452  )
       105        Si     tau( 105) = (  -1.3171421  -1.3497576   2.8077381  )
       106        Si     tau( 106) = (  -1.4382565  -1.2713451   3.1651955  )
       107        Si     tau( 107) = (  -1.3146902  -1.5120617   3.0641797  )
       108        O      tau( 108) = (  -1.6799068  -1.3757076   3.2953061  )
       109        O      tau( 109) = (  -1.0709705  -1.3896901   2.9577868  )
       110        O      tau( 110) = (  -1.1723469  -1.0988448   3.0623706  )
       111        O      tau( 111) = (  -1.2931532  -1.6219153   3.0495683  )
       112        O      tau( 112) = (  -1.3265317  -1.4173918   2.7187564  )
       113        O      tau( 113) = (  -1.0753606  -1.1557761   2.9252244  )
       114        O      tau( 114) = (  -1.4019639  -1.3504895   2.8765923  )
       115        O      tau( 115) = (  -1.5249527  -1.3262930   3.2206351  )
       116        O      tau( 116) = (  -1.2291925  -1.4551574   3.0138554  )
       117        O      tau( 117) = (  -1.2994827  -1.5017895   3.1780368  )
       118        O      tau( 118) = (  -1.4466270  -1.2794097   3.0544722  )
       119        O      tau( 119) = (  -1.3063550  -1.2427520   2.7615161  )
       120        O      tau( 120) = (  -1.1884828  -1.2713009   3.0190431  )
       121        O      tau( 121) = (  -1.3399901  -1.3077127   3.2036136  )
       122        O      tau( 122) = (  -1.4140070  -1.4816294   3.0324577  )
       123        O      tau( 123) = (  -1.2689642  -1.1472293   2.9118265  )
       124        O      tau( 124) = (  -1.2175724  -1.3739262   2.8527521  )
       125        H      tau( 125) = (  -1.6740647  -1.4126814   3.7304402  )
       126        H      tau( 126) = (  -1.9012159  -2.1719931   3.6707369  )
       127        H      tau( 127) = (  -1.3668185  -1.2217090   3.6745331  )
       128        H      tau( 128) = (  -1.6455645  -2.0830827   3.5771408  )
       129        H      tau( 129) = (  -1.7695326  -1.9164968   3.6931354  )
       130        H      tau( 130) = (  -1.7302740  -1.6466888   3.6737204  )
       131        H      tau( 131) = (  -1.5098731  -1.7084300   3.6825262  )
       132        H      tau( 132) = (  -1.5013639  -1.5521523   3.5854734  )
       133        H      tau( 133) = (  -0.8561293  -0.6755050   2.5369356  )
       134        H      tau( 134) = (  -1.0461523  -0.5502683   2.5614437  )
       135        H      tau( 135) = (  -1.1091034  -0.7148473   2.6603889  )
       136        H      tau( 136) = (  -0.9950115  -0.8726063   2.5416112  )
       137        H      tau( 137) = (  -1.0774281  -1.3659113   2.5335124  )
       138        H      tau( 138) = (  -1.0583400  -1.1061750   2.5628297  )
       139        H      tau( 139) = (  -1.1989067  -1.0857212   2.5736003  )
       140        H      tau( 140) = (  -1.2461047  -1.2348686   2.6629995  )
       141        K      tau( 141) = (  -0.4161467  -0.9166020   2.7599186  )
       142        Al     tau( 142) = (  -0.6595407  -1.6596354   2.7985315  )
       143        Si     tau( 143) = (  -0.5445328  -0.8499614   2.9634198  )
       144        Si     tau( 144) = (  -0.6889479  -0.6210831   2.8086676  )
       145        Si     tau( 145) = (  -0.6754224  -0.8281039   2.8073206  )
       146        Si     tau( 146) = (  -0.8115993  -1.6919669   2.9675333  )
       147        Si     tau( 147) = (  -0.4526680  -0.7204851   2.6231008  )
       148        Si     tau( 148) = (  -0.8097868  -1.5350363   2.6967753  )
       149        O      tau( 149) = (  -1.0572166  -1.6412876   2.8135436  )
       150        O      tau( 150) = (  -0.6957587  -0.8992125   2.7229477  )
       151        O      tau( 151) = (  -0.7656532  -0.8393076   2.8705195  )
       152        O      tau( 152) = (  -0.7245005  -1.6793026   2.8987347  )
       153        O      tau( 153) = (  -0.3751546  -0.6755228   2.5621729  )
       154        O      tau( 154) = (  -0.8883036  -1.5959551   2.7506174  )
       155        O      tau( 155) = (  -0.5589884  -0.4983439   2.5864861  )
       156        O      tau( 156) = (  -0.4286769  -0.7134390   2.7318982  )
       157        O      tau( 157) = (  -0.5479195  -0.7525016   3.0084784  )
       158        O      tau( 158) = (  -0.6742588  -0.7245014   2.7591171  )
       159        O      tau( 159) = (  -0.5564956  -0.6759473   2.5930821  )
       160        O      tau( 160) = (  -0.7119867  -1.5599957   2.7415055  )
       161        O      tau( 161) = (  -0.5782115  -0.8521262   2.8573331  )
       162        O      tau( 162) = (  -0.9139341  -1.6746407   2.9148990  )
       163        Al     tau( 163) = (  -0.5411997  -1.1478951   2.7935943  )
       164        Si     tau( 164) = (  -0.6783248  -1.0089589   2.6945155  )
       165        Si     tau( 165) = (  -0.5860952  -1.2462089   2.6134100  )
       166        O      tau( 166) = (  -0.9193821  -1.1020548   2.8177072  )
       167        O      tau( 167) = (  -0.4645230  -0.8358563   2.6035800  )
       168        O      tau( 168) = (  -0.5686547  -1.3477922   2.5664811  )
       169        O      tau( 169) = (  -0.7648236  -1.0712987   2.7381213  )
       170        O      tau( 170) = (  -0.5255157  -1.1718839   2.5482239  )
       171        O      tau( 171) = (  -0.5524529  -1.2462526   2.7200867  )
       172        O      tau( 172) = (  -0.6890007  -1.0135136   2.5839034  )
       173        O      tau( 173) = (  -0.5811540  -1.0542642   2.7265157  )
       174        O      tau( 174) = (  -0.6975647  -1.2274958   2.6025113  )
       175        O      tau( 175) = (  -1.3076212  -1.9443371   3.6473977  )
       176        Al     tau( 176) = (  -1.0816989  -1.1291779   3.4510769  )
       177        Si     tau( 177) = (  -0.9432256  -1.2533852   3.5482521  )
       178        Si     tau( 178) = (  -1.3101601  -2.0571438   3.6325303  )
       179        O      tau( 179) = (  -1.6957977  -1.1542932   3.4416978  )
       180        O      tau( 180) = (  -1.1867111  -1.4234078   3.6474033  )
       181        O      tau( 181) = (  -0.8655034  -1.1883329   3.4969036  )
       182        O      tau( 182) = (  -1.3765273  -2.1058306   3.7088989  )
       183        O      tau( 183) = (  -1.3339003  -2.0867332   3.5290152  )
       184        O      tau( 184) = (  -0.9311930  -1.2407621   3.6615081  )
       185        O      tau( 185) = (  -1.0433728  -1.2253175   3.5079136  )
       186        O      tau( 186) = (  -1.2005056  -2.0962292   3.6491956  )
       187        K      tau( 187) = (  -1.1952402  -1.3464756   3.4818915  )
       188        K      tau( 188) = (  -0.8047355  -1.7116009   3.2207465  )
       189        K      tau( 189) = (  -1.3475588  -1.8613737   3.4940649  )
       190        Al     tau( 190) = (  -1.2070376  -1.6431623   3.4468076  )
       191        Si     tau( 191) = (  -1.0707433  -1.4003639   3.2798709  )
       192        Si     tau( 192) = (  -0.9218357  -1.6417169   3.4343894  )
       193        Si     tau( 193) = (  -0.9319560  -1.4357478   3.4346510  )
       194        Si     tau( 194) = (  -1.0597074  -1.6110884   3.2764199  )
       195        Si     tau( 195) = (  -1.1658184  -1.5337470   3.6237635  )
       196        Si     tau( 196) = (  -1.0654925  -1.7741627   3.5372588  )
       197        O      tau( 197) = (  -1.8145401  -1.6729390   3.4270976  )
       198        O      tau( 198) = (  -0.9252763  -1.3663134   3.5249964  )
       199        O      tau( 199) = (  -1.0432953  -1.8828179   3.5174876  )
       200        O      tau( 200) = (  -1.0535350  -1.6876340   3.1924533  )
       201        O      tau( 201) = (  -0.8384651  -1.4262366   3.3711793  )
       202        O      tau( 202) = (  -1.1465669  -1.6330593   3.3411272  )
       203        O      tau( 203) = (  -1.2243210  -1.6087430   3.6862722  )
       204        O      tau( 204) = (  -0.9773200  -1.7213184   3.4840512  )
       205        O      tau( 205) = (  -1.0576700  -1.7548209   3.6527023  )
       206        O      tau( 206) = (  -1.1783931  -1.5499922   3.5151998  )
       207        O      tau( 207) = (  -1.0563352  -1.5038166   3.2353133  )
       208        O      tau( 208) = (  -0.9325445  -1.5373937   3.4846524  )
       209        O      tau( 209) = (  -1.0544584  -1.5539308   3.6505371  )
       210        O      tau( 210) = (  -1.1692350  -1.7429127   3.5070731  )
       211        O      tau( 211) = (  -1.0259842  -1.4069475   3.3795676  )
       212        O      tau( 212) = (  -0.9596605  -1.6311897   3.3296998  )
       213        K      tau( 213) = (  -0.6830993  -1.1908072   3.2438352  )
       214        Al     tau( 214) = (  -0.8219929  -0.8604307   2.9773521  )
       215        Al     tau( 215) = (  -0.6600843  -0.8966647   3.2619198  )
       216        Si     tau( 216) = (  -0.7998533  -1.1108977   3.4438798  )
       217        Si     tau( 217) = (  -1.2117853  -1.9215825   3.2795147  )
       218        Si     tau( 218) = (  -0.9394532  -1.0818199   3.2806836  )
       219        Si     tau( 219) = (  -1.0698660  -1.9587240   3.4346844  )
       220        Si     tau( 220) = (  -0.6803890  -0.9926308   3.0808895  )
       221        Si     tau( 221) = (  -1.0609464  -1.8019644   3.1682291  )
       222        O      tau( 222) = (  -1.4386459  -0.8856345   2.9513133  )
       223        O      tau( 223) = (  -1.3183339  -1.8965871   3.2909922  )
       224        O      tau( 224) = (  -0.9458767  -1.1574964   3.1976856  )
       225        O      tau( 225) = (  -1.0205923  -1.0948405   3.3526549  )
       226        O      tau( 226) = (  -0.9877597  -1.9744556   3.3595570  )
       227        O      tau( 227) = (  -0.6008187  -0.9249623   3.0295076  )
       228        O      tau( 228) = (  -1.1549566  -1.8396129   3.2278267  )
       229        O      tau( 229) = (  -1.0750723  -1.8081801   3.0537207  )
       230        O      tau( 230) = (  -0.6587289  -0.9909501   3.1908169  )
       231        O      tau( 231) = (  -1.0836248  -2.0577962   3.4961132  )
       232        O      tau( 232) = (  -0.9224413  -0.9796645   3.2354190  )
       233        O      tau( 233) = (  -0.7821481  -0.9605481   3.0443806  )
       234        O      tau( 234) = (  -0.9672535  -1.8474916   3.2032852  )
       235        O      tau( 235) = (  -0.8368858  -1.1006578   3.3320042  )
       236        O      tau( 236) = (  -1.1690719  -1.9341502   3.3866367  )
       237        K      tau( 237) = (  -0.9183927  -1.0890770   3.0106715  )
       238        K      tau( 238) = (  -0.5676557  -1.4263676   2.7380823  )
       239        K      tau( 239) = (  -1.0769730  -1.6073571   3.0274760  )
       240        Al     tau( 240) = (  -0.7937598  -1.4072092   3.2646918  )
       241        Al     tau( 241) = (  -0.9511840  -1.3738565   2.9857070  )
       242        Si     tau( 242) = (  -0.8191470  -1.1480008   2.8058121  )
       243        Si     tau( 243) = (  -0.6720897  -1.3829428   2.9615162  )
       244        Si     tau( 244) = (  -0.6783259  -1.1752828   2.9688636  )
       245        Si     tau( 245) = (  -0.8213576  -1.3512338   2.8094024  )
       246        Si     tau( 246) = (  -0.9331198  -1.2697648   3.1675222  )
       247        Si     tau( 247) = (  -0.8067538  -1.5084219   3.0735365  )
       248        O      tau( 248) = (  -1.1773882  -1.3751516   3.2934080  )
       249        O      tau( 249) = (  -1.5684951  -1.4098995   2.9507177  )
       250        O      tau( 250) = (  -0.6669137  -1.1066406   3.0569547  )
       251        O      tau( 251) = (  -0.7992164  -1.6235255   3.0576449  )
       252        O      tau( 252) = (  -0.8254837  -1.4228720   2.7209328  )
       253        O      tau( 253) = (  -0.5911004  -1.1557933   2.9027146  )
       254        O      tau( 254) = (  -0.9109740  -1.3510793   2.8723063  )
       255        O      tau( 255) = (  -1.0278668  -1.3237962   3.2110390  )
       256        O      tau( 256) = (  -0.7127977  -1.4699976   3.0202065  )
       257        O      tau( 257) = (  -0.7964178  -1.5003442   3.1843823  )
       258        O      tau( 258) = (  -0.9292523  -1.2747334   3.0544109  )
       259        O      tau( 259) = (  -0.8161825  -1.2470893   2.7526992  )
       260        O      tau( 260) = (  -0.6785412  -1.2785689   3.0140502  )
       261        O      tau( 261) = (  -0.8353268  -1.3131476   3.2044764  )
       262        O      tau( 262) = (  -0.8957135  -1.4665360   3.0283165  )
       263        O      tau( 263) = (  -0.7787223  -1.1622035   2.9129063  )
       264        O      tau( 264) = (  -0.7266683  -1.3720802   2.8666176  )
       265        H      tau( 265) = (  -1.2113820  -1.4023706   3.7105465  )
       266        H      tau( 266) = (  -1.3350602  -2.1253471   3.7628969  )
       267        H      tau( 267) = (  -0.9405450  -1.1773569   3.6781177  )
       268        H      tau( 268) = (  -1.1611812  -2.1012722   3.5937616  )
       269        H      tau( 269) = (  -1.2472541  -1.9288771   3.6724068  )
       270        H      tau( 270) = (  -1.2013213  -1.6259160   3.7524881  )
       271        H      tau( 271) = (  -1.0712579  -1.6910177   3.6537989  )
       272        H      tau( 272) = (  -1.0099268  -1.5658920   3.6042595  )
       273        H      tau( 273) = (  -0.3959096  -0.6357519   2.5089041  )
       274        H      tau( 274) = (  -0.5733194  -0.5607059   2.5618834  )
       275        H      tau( 275) = (  -0.6009223  -0.7081546   2.6341720  )
       276        H      tau( 276) = (  -0.5049055  -0.8559965   2.5546529  )
       277        H      tau( 277) = (  -0.6117556  -1.3642687   2.5185002  )
       278        H      tau( 278) = (  -0.5261748  -1.1112561   2.5792333  )
       279        H      tau( 279) = (  -0.7079747  -1.0777227   2.5691974  )
       280        H      tau( 280) = (  -0.7420618  -1.2173656   2.6552569  )
       281        O      tau( 281) = (  -1.4015679  -2.0579054   3.9876444  )
       282        H      tau( 282) = (  -1.4267528  -2.1177576   4.0084120  )
       283        H      tau( 283) = (  -1.3744908  -2.0332334   4.0457057  )
       284        O      tau( 284) = (  -1.6155255  -2.0824950   4.1964280  )
       285        H      tau( 285) = (  -1.6203835  -2.1340443   4.1548817  )
       286        H      tau( 286) = (  -1.6737136  -2.0537585   4.1778090  )
       287        O      tau( 287) = (  -1.2930863  -1.6653652   4.2025564  )
       288        H      tau( 288) = (  -1.3560370  -1.6486209   4.2173347  )
       289        H      tau( 289) = (  -1.2710390  -1.6080469   4.1723262  )
       290        O      tau( 290) = (  -1.5009772  -1.6145446   4.1894090  )
       291        H      tau( 291) = (  -1.5509194  -1.6306199   4.2346735  )
       292        H      tau( 292) = (  -1.4923616  -1.5461558   4.1967675  )
       293        O      tau( 293) = (  -2.1556932  -2.3952354   4.0437520  )
       294        H      tau( 294) = (  -1.8833430  -1.4164091   4.0460007  )
       295        H      tau( 295) = (  -2.1044251  -2.3637430   4.0066085  )
       296        O      tau( 296) = (  -1.2675182  -1.1761393   3.7253917  )
       297        H      tau( 297) = (  -1.5682765  -2.1799254   3.7688249  )
       298        H      tau( 298) = (  -1.4777108  -2.1869682   3.7055870  )
       299        O      tau( 299) = (  -1.4879715  -1.3487083   3.8112785  )
       300        H      tau( 300) = (  -1.4670507  -1.3124944   3.7520205  )
       301        H      tau( 301) = (  -1.4918336  -1.4093043   3.7835977  )
       302        O      tau( 302) = (  -1.7427759  -1.6341308   3.8823370  )
       303        H      tau( 303) = (  -1.7106542  -1.6965726   3.8906585  )
       304        H      tau( 304) = (  -1.7219516  -1.6097445   3.8227060  )
       305        O      tau( 305) = (  -1.5087855  -1.9461343   3.8960856  )
       306        H      tau( 306) = (  -1.4642605  -1.9828273   3.9334962  )
       307        H      tau( 307) = (  -1.5497447  -1.9964801   3.8784963  )
       308        O      tau( 308) = (  -1.7730948  -1.9676402   4.1457976  )
       309        H      tau( 309) = (  -1.8202662  -1.9549600   4.1928211  )
       310        H      tau( 310) = (  -1.8017375  -1.9812421   4.0856712  )
       311        O      tau( 311) = (  -1.5071972  -1.9120505   4.2233351  )
       312        H      tau( 312) = (  -1.5453581  -1.8817098   4.1740351  )
       313        H      tau( 313) = (  -1.5427623  -1.9673599   4.2433624  )
       314        O      tau( 314) = (  -1.6915066  -1.8523172   3.7429420  )
       315        H      tau( 315) = (  -1.6463169  -1.8119113   3.7118657  )
       316        H      tau( 316) = (  -1.6866412  -1.8355225   3.8081169  )
       317        O      tau( 317) = (  -2.0735898  -2.0281162   4.0785965  )
       318        H      tau( 318) = (  -2.0541138  -1.9645127   4.0875415  )
       319        H      tau( 319) = (  -2.1113428  -2.0365180   4.0241422  )
       320        O      tau( 320) = (  -1.2652330  -1.4989604   4.1271340  )
       321        H      tau( 321) = (  -1.3023129  -1.4691718   4.1755491  )
       322        H      tau( 322) = (  -1.2927770  -1.4896433   4.0617142  )
       323        O      tau( 323) = (  -1.4197897  -2.1747635   4.3772524  )
       324        H      tau( 324) = (  -2.3560708  -2.1958975   4.3902996  )
       325        H      tau( 325) = (  -1.4346091  -2.1149826   4.4035528  )
       326        O      tau( 326) = (  -1.1454811  -1.9110316   3.7300061  )
       327        H      tau( 327) = (  -1.1209219  -1.8480300   3.7241281  )
       328        H      tau( 328) = (  -1.1715028  -1.9198692   3.7907169  )
       329        O      tau( 329) = (  -2.2085514  -2.3529970   4.2309052  )
       330        H      tau( 330) = (  -2.1559065  -2.3430139   4.1911401  )
       331        H      tau( 331) = (  -2.2575415  -2.3138153   4.2111340  )
       332        O      tau( 332) = (  -2.0894269  -1.4421995   4.1220075  )
       333        H      tau( 333) = (  -2.3577563  -2.4311136   4.1614443  )
       334        H      tau( 334) = (  -1.1530762  -1.4637424   4.1241505  )
       335        O      tau( 335) = (  -1.6652353  -1.6565532   4.2777617  )
       336        H      tau( 336) = (  -1.7077943  -1.6077111   4.2601000  )
       337        H      tau( 337) = (  -1.7108239  -1.6969571   4.3039508  )
       338        O      tau( 338) = (  -2.1386758  -1.7616484   4.2820755  )
       339        H      tau( 339) = (  -2.1876280  -1.7142516   4.2823204  )
       340        H      tau( 340) = (  -2.1423559  -1.7928514   4.2238417  )
       341        O      tau( 341) = (  -1.4583755  -2.2534349   4.0219324  )
       342        H      tau( 342) = (  -1.4324129  -2.3131929   4.0012928  )
       343        H      tau( 343) = (  -1.5241915  -2.2566813   4.0474424  )
       344        O      tau( 344) = (  -1.8089259  -2.1553272   3.8877696  )
       345        H      tau( 345) = (  -1.8343975  -2.1097330   3.9277351  )
       346        H      tau( 346) = (  -1.8202284  -2.1294320   3.8275931  )
       347        O      tau( 347) = (  -1.9326784  -1.5691008   4.1129012  )
       348        H      tau( 348) = (  -1.9514694  -1.5921673   4.0474145  )
       349        H      tau( 349) = (  -1.9794998  -1.5223490   4.1297613  )
       350        O      tau( 350) = (  -1.9431967  -2.3043975   4.3780094  )
       351        H      tau( 351) = (  -2.0061016  -2.2812113   4.3718142  )
       352        H      tau( 352) = (  -1.9037404  -2.2501530   4.3839541  )
       353        O      tau( 353) = (  -1.9153217  -2.3935844   4.2090244  )
       354        H      tau( 354) = (  -1.9642863  -2.4419288   4.1979643  )
       355        H      tau( 355) = (  -1.9233834  -2.3733122   4.2749507  )
       356        O      tau( 356) = (  -1.7771772  -2.2882517   4.0088128  )
       357        H      tau( 357) = (  -1.8317630  -2.2727601   4.0493238  )
       358        H      tau( 358) = (  -1.7803541  -2.2465259   3.9557833  )
       359        O      tau( 359) = (  -1.0655369  -1.3570031   3.9552935  )
       360        H      tau( 360) = (  -1.0835644  -1.4025111   4.0003131  )
       361        H      tau( 361) = (  -2.0022166  -1.3473394   3.9778479  )
       362        O      tau( 362) = (  -1.6278756  -2.0888087   3.8116515  )
       363        H      tau( 363) = (  -1.6860796  -2.1121058   3.8415365  )
       364        H      tau( 364) = (  -1.6429235  -2.0798832   3.7466769  )
       365        O      tau( 365) = (  -1.6059640  -2.3886910   4.2324582  )
       366        H      tau( 366) = (  -1.6186923  -2.3452978   4.2863504  )
       367        H      tau( 367) = (  -1.6622380  -2.4270229   4.2243036  )
       368        O      tau( 368) = (  -1.9803473  -1.8545465   4.1195528  )
       369        H      tau( 369) = (  -1.9721701  -1.9023753   4.1712352  )
       370        H      tau( 370) = (  -1.9246191  -1.8214147   4.1152279  )
       371        O      tau( 371) = (  -2.1110223  -1.9330013   4.3837816  )
       372        H      tau( 372) = (  -2.1166247  -1.8736184   4.3531952  )
       373        H      tau( 373) = (  -2.1345307  -1.9841709   4.3419848  )
       374        O      tau( 374) = (  -1.2746199  -1.4864384   3.9379213  )
       375        H      tau( 375) = (  -1.3344319  -1.5249053   3.9234157  )
       376        H      tau( 376) = (  -1.2226795  -1.5265783   3.9245958  )
       377        O      tau( 377) = (  -1.1370066  -1.6220420   3.8793702  )
       378        H      tau( 378) = (  -1.0840459  -1.5821518   3.8646030  )
       379        H      tau( 379) = (  -1.1107265  -1.6786952   3.9088155  )
       380        O      tau( 380) = (  -1.9851460  -1.6484472   4.3091608  )
       381        H      tau( 381) = (  -2.0254045  -1.7052967   4.3189239  )
       382        H      tau( 382) = (  -1.9833199  -1.6376176   4.2399781  )
       383        O      tau( 383) = (  -2.1108324  -2.1193728   3.9170480  )
       384        H      tau( 384) = (  -2.0766736  -2.0865031   3.8657608  )
       385        H      tau( 385) = (  -2.0836816  -2.1823904   3.9303624  )
       386        O      tau( 386) = (  -1.2210896  -1.9275389   3.9008002  )
       387        H      tau( 387) = (  -1.2424078  -1.9903191   3.9075297  )
       388        H      tau( 388) = (  -1.2776699  -1.8943458   3.8750174  )
       389        O      tau( 389) = (  -2.2346931  -2.0554595   4.2725406  )
       390        H      tau( 390) = (  -2.2465591  -2.1123023   4.2424440  )
       391        H      tau( 391) = (  -2.2659886  -2.0158252   4.2321409  )
       392        O      tau( 392) = (  -1.8824982  -2.0298324   3.9898932  )
       393        H      tau( 393) = (  -1.8912829  -1.9717801   3.9515586  )
       394        H      tau( 394) = (  -1.9461184  -2.0419315   4.0073544  )
       395        O      tau( 395) = (  -1.6278250  -1.8043557   3.9341975  )
       396        H      tau( 396) = (  -1.5926843  -1.8631930   3.9211781  )
       397        H      tau( 397) = (  -1.6571867  -1.8049214   3.9954149  )
       398        O      tau( 398) = (  -2.0446803  -2.1243920   4.2320296  )
       399        H      tau( 399) = (  -2.0832412  -2.1551097   4.2823371  )
       400        H      tau( 400) = (  -2.0793843  -2.0826825   4.1940122  )
       401        O      tau( 401) = (  -1.7120845  -1.2083479   3.6688165  )
       402        H      tau( 402) = (  -1.7217263  -1.2416249   3.7278352  )
       403        H      tau( 403) = (  -1.7771585  -1.1978899   3.6538211  )
       404        O      tau( 404) = (  -1.8276792  -1.7481347   4.2929352  )
       405        H      tau( 405) = (  -1.8844778  -1.7158612   4.3110366  )
       406        H      tau( 406) = (  -1.8347066  -1.8112030   4.3125005  )
       407        O      tau( 407) = (  -2.0906308  -1.7864689   3.9484860  )
       408        H      tau( 408) = (  -2.0492772  -1.7942607   4.0025619  )
       409        H      tau( 409) = (  -1.1366091  -1.8368014   3.9429087  )
       410        O      tau( 410) = (  -1.5303908  -1.4349234   3.9737567  )
       411        H      tau( 411) = (  -1.5211115  -1.3680221   3.9652793  )
       412        H      tau( 412) = (  -1.4954144  -1.4717757   3.9273733  )
       413        O      tau( 413) = (  -1.6778732  -1.3462167   3.8355751  )
       414        H      tau( 414) = (  -1.6936291  -1.3893455   3.8883318  )
       415        H      tau( 415) = (  -1.6079094  -1.3334201   3.8403843  )
       416        O      tau( 416) = (  -1.3977812  -1.6846934   3.7397024  )
       417        H      tau( 417) = (  -1.3858875  -1.7426447   3.7713631  )
       418        H      tau( 418) = (  -1.3489077  -1.6590849   3.6999151  )
       419        O      tau( 419) = (  -1.6870454  -1.7932948   4.1121999  )
       420        H      tau( 420) = (  -1.7105093  -1.7425678   4.1526775  )
       421        H      tau( 421) = (  -1.7135333  -1.8512453   4.1461538  )
       422        O      tau( 422) = (  -1.7849534  -2.1828191   4.3901939  )
       423        H      tau( 423) = (  -1.7350550  -2.2258339   4.3783991  )
       424        H      tau( 424) = (  -1.7615011  -2.1389701   4.4330705  )
       425        O      tau( 425) = (  -1.7585334  -1.5199147   4.1590842  )
       426        H      tau( 426) = (  -1.7276138  -1.5149741   4.1001768  )
       427        H      tau( 427) = (  -1.8248158  -1.5340990   4.1413780  )
       428        O      tau( 428) = (  -1.9360670  -2.2356685   4.1147881  )
       429        H      tau( 429) = (  -1.9306423  -2.2945517   4.1532563  )
       430        H      tau( 430) = (  -1.9772939  -2.1939328   4.1514251  )
       431        O      tau( 431) = (  -1.4710632  -1.7084250   4.0217041  )
       432        H      tau( 432) = (  -1.4916709  -1.6740804   4.0785798  )
       433        H      tau( 433) = (  -1.5300035  -1.7298525   3.9978918  )
       434        O      tau( 434) = (  -1.7498840  -2.4585073   4.1634425  )
       435        H      tau( 435) = (  -1.4955029  -1.4227234   4.0983010  )
       436        H      tau( 436) = (  -1.8105210  -2.4403339   4.1893978  )
       437        O      tau( 437) = (  -1.6285942  -2.2543250   4.0973102  )
       438        H      tau( 438) = (  -1.6094679  -2.3051695   4.1386840  )
       439        H      tau( 439) = (  -1.6826633  -2.2788407   4.0614414  )
       440        O      tau( 440) = (  -1.9274723  -1.6426105   3.9341975  )
       441        H      tau( 441) = (  -1.9325086  -1.5991359   3.8831719  )
       442        H      tau( 442) = (  -1.8671999  -1.6677350   3.9218906  )
       443        O      tau( 443) = (  -1.9138284  -1.8792235   3.8588141  )
       444        H      tau( 444) = (  -1.9427933  -1.9313006   3.8268751  )
       445        H      tau( 445) = (  -1.9641221  -1.8333592   3.8701859  )
       446        O      tau( 446) = (  -2.0290180  -2.2866111   3.9592288  )
       447        H      tau( 447) = (  -1.9869034  -2.3102624   3.9100011  )
       448        H      tau( 448) = (  -1.9892588  -2.2618665   4.0051947  )
       449        O      tau( 449) = (  -1.9500042  -1.9691006   4.2592095  )
       450        H      tau( 450) = (  -1.9713364  -1.9463524   4.3235550  )
       451        H      tau( 451) = (  -1.9635721  -2.0367243   4.2624824  )
       452        O      tau( 452) = (  -1.4306345  -1.5739535   3.8872631  )
       453        H      tau( 453) = (  -1.4397406  -1.6188245   3.9348376  )
       454        H      tau( 454) = (  -1.4273828  -1.6158463   3.8332484  )
       455        O      tau( 455) = (  -1.3659423  -2.2595562   4.1871936  )
       456        H      tau( 456) = (  -1.4097145  -2.2493678   4.2377350  )
       457        H      tau( 457) = (  -1.3975736  -2.2483618   4.1307521  )
       458        O      tau( 458) = (  -1.3838968  -1.8537529   3.8005802  )
       459        H      tau( 459) = (  -1.4440154  -1.8821879   3.8262906  )
       460        H      tau( 460) = (  -1.3660193  -1.8901199   3.7470777  )
       461        O      tau( 461) = (  -1.3114354  -1.7984632   4.0644583  )
       462        H      tau( 462) = (  -1.3647104  -1.7704674   4.0309385  )
       463        H      tau( 463) = (  -1.3058425  -1.7546900   4.1212895  )
       464        O      tau( 464) = (  -0.9965601  -1.4940746   3.8249158  )
       465        H      tau( 465) = (  -1.0198876  -1.4909517   3.7627689  )
       466        H      tau( 466) = (  -1.0247904  -1.4484881   3.8629609  )
       467        O      tau( 467) = (  -2.0187175  -2.0377201   3.7792338  )
       468        H      tau( 468) = (  -1.9736669  -2.0677214   3.7346372  )
       469        H      tau( 469) = (  -2.0616798  -1.9947639   3.7478458  )
       470        O      tau( 470) = (  -2.2169534  -2.1159435   4.4656886  )
       471        H      tau( 471) = (  -2.2331850  -2.1004346   4.4008810  )
       472        H      tau( 472) = (  -2.1708481  -2.0693528   4.4821312  )
       473        O      tau( 473) = (  -1.2799740  -2.1146464   3.8559531  )
       474        H      tau( 474) = (  -1.2145782  -2.1265838   3.8688500  )
       475        H      tau( 475) = (  -1.3173140  -2.1337620   3.9069453  )
       476        O      tau( 476) = (  -1.8456479  -1.7552525   3.6650538  )
       477        H      tau( 477) = (  -1.9112965  -1.7434078   3.6705922  )
       478        H      tau( 478) = (  -1.8268393  -1.7849991   3.7249018  )
       479        O      tau( 479) = (  -1.2269498  -1.3587096   3.8012872  )
       480        H      tau( 480) = (  -1.2413146  -1.2986001   3.7816384  )
       481        H      tau( 481) = (  -1.2492296  -1.3771789   3.8626492  )
       482        O      tau( 482) = (  -2.1229460  -2.2468578   4.3441278  )
       483        H      tau( 483) = (  -2.1404211  -2.2314613   4.4066866  )
       484        H      tau( 484) = (  -2.1676453  -2.2912565   4.3218740  )
       485        O      tau( 485) = (  -1.3305788  -1.9607361   4.1491373  )
       486        H      tau( 486) = (  -1.3914669  -1.9622927   4.1777255  )
       487        H      tau( 487) = (  -1.3247325  -1.9030568   4.1172763  )
       488        O      tau( 488) = (  -1.7147080  -1.4767250   3.9788999  )
       489        H      tau( 489) = (  -1.7291137  -1.5384949   3.9480908  )
       490        H      tau( 490) = (  -1.6454467  -1.4770501   3.9792895  )
       491        O      tau( 491) = (  -1.6090439  -2.2265773   4.3406378  )
       492        H      tau( 492) = (  -1.5473918  -2.2242322   4.3709236  )
       493        H      tau( 493) = (  -1.6171092  -2.1687568   4.3004997  )

     number of k points=     1
                       cart. coord. in units 2pi/alat
        k(    1) = (   0.0000000   0.0000000   0.0000000), wk =   2.0000000

     Dense  grid:  3184389 G-vectors     FFT dimensions: ( 192, 200, 480)

     Estimated max dynamical RAM per process >     493.86 MB

     Estimated total dynamical RAM >      57.87 GB

     WARNING: libxc functional with ID  263 depends
      on external parameters: check the user_guide of
      QE if you need to modify them or to check their
      default values.

     Initial potential from superposition of free atoms

     starting charge    2103.6163, renormalised to    2104.0000
     Starting wfcs are 1530 randomized atomic wfcs

     total cpu time spent up to now is       37.0 secs

     Self-consistent Calculation

     iteration #  1     ecut=   110.00 Ry     beta= 0.50
     Davidson diagonalization with overlap
     ethr =  1.00E-02,  avg # of iterations =  2.0

     total cpu time spent up to now is      119.7 secs

     total energy              =  -11162.12668827 Ry
     estimated scf accuracy    <    4087.51615468 Ry

     iteration #  2     ecut=   110.00 Ry     beta= 0.50
     Davidson diagonalization with overlap
     ethr =  1.00E-02,  avg # of iterations =  2.0

     total cpu time spent up to now is      190.4 secs

     total energy              =  -11181.76817284 Ry
     estimated scf accuracy    <     541.04193686 Ry

     iteration #  3     ecut=   110.00 Ry     beta= 0.50
     Davidson diagonalization with overlap
     ethr =  1.00E-02,  avg # of iterations =  1.0

     total cpu time spent up to now is      244.6 secs

     total energy              =  -11183.39307163 Ry
     estimated scf accuracy    <      50.47944861 Ry

     iteration #  4     ecut=   110.00 Ry     beta= 0.50
     Davidson diagonalization with overlap
     ethr =  2.40E-03,  avg # of iterations =  1.0

     total cpu time spent up to now is      301.0 secs

     total energy              =  -11183.53390689 Ry
     estimated scf accuracy    <       0.87375577 Ry

     iteration #  5     ecut=   110.00 Ry     beta= 0.50
     Davidson diagonalization with overlap
     ethr =  4.15E-05,  avg # of iterations =  2.0

     total cpu time spent up to now is      359.9 secs

     total energy              =  -11183.57150007 Ry
     estimated scf accuracy    <       0.03575227 Ry

     iteration #  6     ecut=   110.00 Ry     beta= 0.50
     Davidson diagonalization with overlap
     ethr =  1.70E-06,  avg # of iterations =  4.0

     total cpu time spent up to now is      437.1 secs

     total energy              =  -11183.57805031 Ry
     estimated scf accuracy    <       0.00597079 Ry

     iteration #  7     ecut=   110.00 Ry     beta= 0.50
     Davidson diagonalization with overlap
     ethr =  2.84E-07,  avg # of iterations =  3.0

     total cpu time spent up to now is      509.9 secs

     total energy              =  -11183.57873066 Ry
     estimated scf accuracy    <       0.00229587 Ry

     iteration #  8     ecut=   110.00 Ry     beta= 0.50
     Davidson diagonalization with overlap
     ethr =  1.09E-07,  avg # of iterations =  2.0

     total cpu time spent up to now is      576.8 secs

     total energy              =  -11183.57893452 Ry
     estimated scf accuracy    <       0.00054413 Ry

     iteration #  9     ecut=   110.00 Ry     beta= 0.50
     Davidson diagonalization with overlap
     ethr =  2.59E-08,  avg # of iterations =  2.0

     total cpu time spent up to now is      642.9 secs

     total energy              =  -11183.57897807 Ry
     estimated scf accuracy    <       0.00007124 Ry

     iteration # 10     ecut=   110.00 Ry     beta= 0.50
     Davidson diagonalization with overlap
     ethr =  3.39E-09,  avg # of iterations =  2.0

     total cpu time spent up to now is      708.6 secs

     total energy              =  -11183.57898406 Ry
     estimated scf accuracy    <       0.00000843 Ry

     iteration # 11     ecut=   110.00 Ry     beta= 0.50
     Davidson diagonalization with overlap
     ethr =  4.00E-10,  avg # of iterations =  4.0

     total cpu time spent up to now is      788.3 secs

     total energy              =  -11183.57898592 Ry
     estimated scf accuracy    <       0.00000357 Ry

     iteration # 12     ecut=   110.00 Ry     beta= 0.50
     Davidson diagonalization with overlap
     ethr =  1.70E-10,  avg # of iterations =  3.0

     total cpu time spent up to now is      848.2 secs

     End of self-consistent calculation

          k = 0.0000 0.0000 0.0000 (398025 PWs)   bands (ev):

  -103.8598-103.8169-103.7930-103.7241-103.7232-103.6698-103.6643-103.6388
  -103.6197-103.5757-103.4866-103.4284-103.3640-103.3445-103.2185-103.1368
   -63.3920 -63.3713 -63.3529 -63.3428 -63.3341 -63.3195 -63.3157 -63.2932
   -63.2852 -63.2816 -63.2812 -63.2722 -63.2684 -63.2437 -63.2358 -63.2273
   -63.2211 -63.2201 -63.2107 -63.2097 -63.2036 -63.1787 -63.1782 -63.1730
   -63.1393 -63.1392 -63.1351 -63.1285 -63.1010 -63.0993 -63.0814 -63.0303
   -63.0244 -62.9820 -62.9766 -62.9762 -62.9635 -62.9526 -62.9514 -62.9181
   -62.8902 -62.8850 -62.8212 -62.7980 -62.7723 -62.7697 -62.7121 -62.6915
   -29.1552 -28.9713 -28.9656 -28.9245 -28.8577 -28.7991 -28.7818 -28.7237
   -28.7104 -28.6800 -28.6389 -28.6118 -28.5605 -28.4721 -28.4305 -28.3588
   -21.3995 -21.3840 -21.3431 -21.2418 -21.2330 -21.2259 -21.0913 -21.0830
   -21.0274 -21.0162 -20.9885 -20.9699 -20.9630 -20.9234 -20.8814 -20.8071
   -20.8031 -20.7719 -20.7108 -20.6981 -20.6849 -20.6554 -20.6283 -20.6269
   -20.6255 -20.5748 -20.5678 -20.5398 -20.5164 -20.5077 -20.4974 -20.4848
   -20.4762 -20.4714 -20.4558 -20.4492 -20.4259 -20.4127 -20.4075 -20.3965
   -20.3849 -20.3799 -20.3563 -20.3484 -20.3419 -20.3225 -20.3027 -20.2956
   -20.2920 -20.2547 -20.2505 -20.2381 -20.2226 -20.2003 -20.1829 -20.1696
   -20.1616 -20.1265 -20.1151 -20.0911 -20.0896 -20.0844 -20.0697 -20.0496
   -20.0320 -20.0197 -20.0160 -20.0123 -20.0025 -19.9939 -19.9809 -19.9793
   -19.9575 -19.9460 -19.9443 -19.9302 -19.9211 -19.9077 -19.8999 -19.8711
   -19.8667 -19.8488 -19.8411 -19.8276 -19.8105 -19.8044 -19.7961 -19.7757
   -19.7743 -19.7614 -19.7437 -19.7214 -19.7203 -19.7188 -19.7120 -19.6995
   -19.6904 -19.6862 -19.6712 -19.6548 -19.6433 -19.6174 -19.6059 -19.6052
   -19.5822 -19.5748 -19.5731 -19.5617 -19.5477 -19.5292 -19.5122 -19.5065
   -19.4928 -19.4904 -19.4886 -19.4699 -19.4621 -19.4357 -19.4258 -19.4203
   -19.4115 -19.4099 -19.3976 -19.3951 -19.3892 -19.3708 -19.3643 -19.3581
   -19.3571 -19.3556 -19.3383 -19.3307 -19.3088 -19.3008 -19.2944 -19.2835
   -19.2753 -19.2701 -19.2626 -19.2526 -19.2415 -19.2290 -19.2227 -19.2215
   -19.2034 -19.2006 -19.1945 -19.1855 -19.1810 -19.1736 -19.1637 -19.1551
   -19.1479 -19.1393 -19.1309 -19.1281 -19.1140 -19.1089 -19.0992 -19.0951
   -19.0573 -19.0550 -19.0457 -19.0442 -19.0304 -19.0137 -19.0047 -18.9591
   -18.9521 -18.9461 -18.9401 -18.9358 -18.9298 -18.9193 -18.9102 -18.9074
   -18.8944 -18.8849 -18.8754 -18.8612 -18.8599 -18.8274 -18.8158 -18.8023
   -18.7854 -18.7834 -18.7784 -18.7665 -18.7437 -18.7361 -18.7020 -18.6692
   -18.6629 -18.6440 -18.6385 -18.6384 -18.6276 -18.6232 -18.6064 -18.5806
   -18.5625 -18.5402 -18.5265 -18.5244 -18.5187 -18.5028 -18.4925 -18.4664
   -18.4526 -18.4355 -18.4275 -18.4155 -18.4121 -18.4036 -18.3560 -18.3309
   -18.3229 -18.3189 -18.3153 -18.2952 -18.2610 -18.2590 -18.2374 -18.2332
   -18.1861 -18.1593 -18.1144 -18.1094 -18.1052 -18.0859 -17.9559 -11.7259
   -11.6827 -11.6701 -11.5562 -11.5475 -11.5391 -11.5268 -11.5158 -11.5135
   -11.4893 -11.4830 -11.4546 -11.4283 -11.4072 -11.3798 -11.3745 -11.3512
   -11.3471 -11.3444 -11.3249 -11.3236 -11.3040 -11.2939 -11.2863 -11.2729
   -11.2707 -11.2620 -11.2522 -11.2431 -11.2345 -11.2155 -11.2010 -11.1920
   -11.1800 -11.1790 -11.1514 -11.1186 -11.0904 -11.0744 -11.0700 -11.0566
   -11.0333 -11.0276 -11.0113 -10.9745 -10.9463 -10.9144 -10.8958  -9.6405
    -9.5164  -9.4753  -9.3435  -9.1183  -9.1013  -9.0267  -8.9361  -8.8747
    -8.8718  -8.8546  -8.8036  -8.7745  -8.7222  -8.6679  -8.6382  -8.5246
    -8.4785  -8.3353  -8.2925  -8.2597  -8.2342  -8.1725  -8.1556  -8.1398
    -8.1006  -8.0948  -8.0468  -7.9835  -7.9586  -7.9194  -7.8972  -7.8758
    -7.8391  -7.7767  -7.7754  -7.7536  -7.7100  -7.6214  -7.5389  -7.4673
    -7.4140  -7.3690  -7.3421  -7.3293  -7.2706  -7.2671  -7.2598  -7.2483
    -7.2360  -7.2241  -7.2042  -7.1783  -7.1721  -7.1698  -7.1542  -7.1270
    -7.1089  -7.1041  -7.0890  -7.0758  -7.0476  -7.0309  -7.0235  -6.9927
    -6.9773  -6.9595  -6.9453  -6.9435  -6.9332  -6.8986  -6.8765  -6.8596
    -6.8542  -6.8414  -6.8364  -6.8206  -6.8069  -6.7952  -6.7848  -6.7419
    -6.7367  -6.7164  -6.7146  -6.7099  -6.7037  -6.6984  -6.6731  -6.6651
    -6.6495  -6.6373  -6.6137  -6.6090  -6.5884  -6.5698  -6.5460  -6.5419
    -6.5326  -6.5128  -6.5108  -6.4954  -6.4855  -6.4734  -6.4628  -6.4565
    -6.4455  -6.4278  -6.4105  -6.3944  -6.3887  -6.3873  -6.3807  -6.3680
    -6.3538  -6.3507  -6.3373  -6.3235  -6.2916  -6.2845  -6.2711  -6.2571
    -6.2515  -6.2415  -6.2306  -6.2278  -6.2164  -6.2039  -6.1944  -6.1920
    -6.1726  -6.1683  -6.1618  -6.1514  -6.1334  -6.1092  -6.1088  -6.1059
    -6.0874  -6.0763  -6.0566  -6.0502  -6.0411  -6.0366  -6.0217  -6.0194
    -5.9983  -5.9937  -5.9838  -5.9699  -5.9624  -5.9593  -5.9435  -5.9292
    -5.9165  -5.9093  -5.9005  -5.8936  -5.8830  -5.8718  -5.8519  -5.8406
    -5.8296  -5.8193  -5.8045  -5.7763  -5.7665  -5.7513  -5.7296  -5.6545
    -5.6422  -5.6048  -5.5867  -5.5837  -5.5582  -5.5343  -5.4593  -5.4307
    -5.3960  -5.3773  -5.3761  -5.3519  -5.3397  -5.2908  -5.2830  -5.2644
    -5.2265  -5.2051  -5.1951  -5.1697  -5.1493  -5.1215  -5.0782  -5.0651
    -5.0598  -5.0436  -5.0167  -5.0101  -4.9833  -4.9722  -4.9513  -4.9257
    -4.8799  -4.8677  -4.8521  -4.8409  -4.8265  -4.8190  -4.8035  -4.7789
    -4.7654  -4.7332  -4.7308  -4.6966  -4.6881  -4.6724  -4.6517  -4.6387
    -4.6190  -4.5992  -4.5821  -4.5670  -4.5585  -4.5552  -4.5301  -4.5212
    -4.4904  -4.4815  -4.4602  -4.4541  -4.4226  -4.4086  -4.3968  -4.3796
    -4.3528  -4.3441  -4.3272  -4.2923  -4.2756  -4.2559  -4.2410  -4.2291
    -4.1865  -4.1690  -4.1437  -4.1234  -4.1091  -4.1062  -4.0869  -4.0545
    -4.0336  -4.0195  -4.0044  -3.9853  -3.9772  -3.9578  -3.9300  -3.9229
    -3.9176  -3.9061  -3.8881  -3.8787  -3.8718  -3.8458  -3.8399  -3.8257
    -3.8167  -3.8022  -3.7875  -3.7803  -3.7761  -3.7667  -3.7481  -3.7441
    -3.7290  -3.7201  -3.7113  -3.7040  -3.6992  -3.6818  -3.6601  -3.6558
    -3.6396  -3.6310  -3.6089  -3.5951  -3.5687  -3.5667  -3.5499  -3.5338
    -3.5309  -3.5095  -3.5038  -3.4917  -3.4807  -3.4680  -3.4469  -3.4433
    -3.4332  -3.4168  -3.4072  -3.4023  -3.3912  -3.3724  -3.3681  -3.3550
    -3.3446  -3.3371  -3.3225  -3.3123  -3.3040  -3.2943  -3.2820  -3.2784
    -3.2633  -3.2495  -3.2458  -3.2338  -3.2255  -3.2186  -3.2081  -3.1941
    -3.1869  -3.1848  -3.1779  -3.1556  -3.1510  -3.1381  -3.1318  -3.1206
    -3.1164  -3.0948  -3.0909  -3.0863  -3.0682  -3.0609  -3.0553  -3.0482
    -3.0401  -3.0329  -3.0240  -3.0208  -3.0169  -3.0054  -2.9988  -2.9953
    -2.9888  -2.9797  -2.9682  -2.9607  -2.9452  -2.9352  -2.9346  -2.9258
    -2.9104  -2.9045  -2.8923  -2.8893  -2.8820  -2.8744  -2.8660  -2.8620
    -2.8419  -2.8323  -2.8306  -2.8223  -2.8072  -2.8024  -2.7935  -2.7828
    -2.7706  -2.7672  -2.7551  -2.7451  -2.7391  -2.7292  -2.7205  -2.7178
    -2.7019  -2.6998  -2.6885  -2.6796  -2.6764  -2.6739  -2.6675  -2.6606
    -2.6601  -2.6403  -2.6296  -2.6255  -2.6119  -2.6095  -2.6014  -2.5858
    -2.5809  -2.5758  -2.5657  -2.5489  -2.5410  -2.5386  -2.5189  -2.5112
    -2.4995  -2.4949  -2.4777  -2.4677  -2.4547  -2.4500  -2.4406  -2.4286
    -2.4226  -2.4085  -2.4039  -2.3909  -2.3868  -2.3752  -2.3691  -2.3678
    -2.3573  -2.3380  -2.3352  -2.3244  -2.3164  -2.3023  -2.2921  -2.2867
    -2.2791  -2.2683  -2.2589  -2.2583  -2.2445  -2.2295  -2.2245  -2.2227
    -2.2160  -2.2029  -2.1970  -2.1844  -2.1743  -2.1704  -2.1589  -2.1499
    -2.1435  -2.1390  -2.1261  -2.1206  -2.1145  -2.1048  -2.0992  -2.0916
    -2.0854  -2.0754  -2.0679  -2.0617  -2.0579  -2.0514  -2.0469  -2.0378
    -2.0351  -2.0210  -2.0031  -1.9957  -1.9902  -1.9832  -1.9776  -1.9720
    -1.9633  -1.9499  -1.9360  -1.9336  -1.9209  -1.9116  -1.9058  -1.8951
    -1.8846  -1.8758  -1.8686  -1.8645  -1.8559  -1.8485  -1.8369  -1.8338
    -1.8260  -1.8218  -1.8159  -1.8039  -1.7930  -1.7840  -1.7803  -1.7725
    -1.7697  -1.7581  -1.7569  -1.7539  -1.7424  -1.7302  -1.7288  -1.7161
    -1.7111  -1.7007  -1.6912  -1.6855  -1.6850  -1.6809  -1.6660  -1.6597
    -1.6578  -1.6437  -1.6402  -1.6296  -1.6198  -1.6146  -1.6057  -1.6022
    -1.6011  -1.5931  -1.5886  -1.5816  -1.5628  -1.5591  -1.5440  -1.5391
    -1.5328  -1.5274  -1.5219  -1.5010  -1.4961  -1.4917  -1.4870  -1.4582
    -1.4528  -1.4446  -1.4394  -1.4291  -1.4262  -1.4177  -1.4146  -1.4119
    -1.4023  -1.3944  -1.3891  -1.3839  -1.3810  -1.3719  -1.3660  -1.3604
    -1.3419  -1.3302  -1.3266  -1.3216  -1.3081  -1.3034  -1.2887  -1.2846
    -1.2817  -1.2695  -1.2666  -1.2478  -1.2462  -1.2394  -1.2348  -1.2239
    -1.2142  -1.2084  -1.1890  -1.1783  -1.1723  -1.1673  -1.1533  -1.1505
    -1.1461  -1.1371  -1.1299  -1.1267  -1.1223  -1.1137  -1.1090  -1.0943
    -1.0874  -1.0744  -1.0702  -1.0655  -1.0614  -1.0516  -1.0513  -1.0330
    -1.0265  -1.0182  -1.0162  -1.0120  -1.0040  -1.0008  -0.9927  -0.9881
    -0.9791  -0.9704  -0.9661  -0.9560  -0.9492  -0.9409  -0.9329  -0.9292
    -0.9189  -0.9172  -0.9059  -0.8991  -0.8894  -0.8827  -0.8772  -0.8717
    -0.8688  -0.8598  -0.8581  -0.8493  -0.8428  -0.8359  -0.8256  -0.8184
    -0.8115  -0.8094  -0.8016  -0.7847  -0.7766  -0.7646  -0.7597  -0.7538
    -0.7505  -0.7442  -0.7397  -0.7345  -0.7302  -0.7213  -0.7188  -0.7120
    -0.7061  -0.6997  -0.6890  -0.6865  -0.6805  -0.6757  -0.6611  -0.6555
    -0.6428  -0.6383  -0.6331  -0.6180  -0.6129  -0.6054  -0.6010  -0.5969
    -0.5873  -0.5872  -0.5605  -0.5586  -0.5512  -0.5397  -0.5337  -0.5228
    -0.5059  -0.4958  -0.4921  -0.4766  -0.4614  -0.4538  -0.4462  -0.4407
    -0.4358  -0.4267  -0.4147  -0.4094  -0.4022  -0.3841  -0.3591  -0.3557
    -0.3451  -0.3418  -0.3384  -0.3358  -0.3209  -0.3010  -0.2932  -0.2819
    -0.2579  -0.2240  -0.2115  -0.1323  -0.0776  -0.0438  -0.0008   0.0737
     0.1420   0.2696   0.7291   1.2998

     highest occupied level (ev):     1.2998

!    total energy              =  -11183.57898603 Ry
     estimated scf accuracy    <       0.00000064 Ry

     The total energy is the sum of the following terms:
     one-electron contribution =  -20654.70903363 Ry
     hartree contribution      =   10973.97023233 Ry
     xc contribution           =   -2313.81162890 Ry
     ewald contribution        =     810.97144417 Ry

     convergence has been achieved in  12 iterations

     Forces acting on atoms (cartesian axes, Ry/au):

     atom    1 type  1   force =     0.00463381   -0.00348089    0.01111568
     atom    2 type  2   force =    -0.01805351   -0.05103543    0.04072958
     atom    3 type  3   force =     0.04900632   -0.04853699    0.00535843
     atom    4 type  3   force =     0.04976479    0.02734908    0.01081075
     atom    5 type  3   force =     0.00188783   -0.01817749    0.05045027
     atom    6 type  3   force =     0.02492325   -0.02242091   -0.04203371
     atom    7 type  3   force =    -0.01043383    0.03268542   -0.00500105
     atom    8 type  3   force =    -0.06790428   -0.04035635   -0.06112295
     atom    9 type  4   force =    -0.06690624   -0.00107927   -0.01708311
     atom   10 type  4   force =    -0.02126880   -0.05186540   -0.03731550
     atom   11 type  4   force =     0.03497212    0.02717903   -0.05320325
     atom   12 type  4   force =    -0.04150529   -0.01512727    0.01852620
     atom   13 type  4   force =     0.07682078    0.02625748    0.04126579
     atom   14 type  4   force =     0.01416846    0.00509960    0.00487013
     atom   15 type  4   force =    -0.00173956    0.07822821    0.05566678
     atom   16 type  4   force =    -0.01867796    0.01925145   -0.03447633
     atom   17 type  4   force =     0.00424128    0.05800101    0.03826908
     atom   18 type  4   force =    -0.00147723    0.02774142   -0.02004738
     atom   19 type  4   force =    -0.01215420   -0.02881629    0.06003263
     atom   20 type  4   force =     0.02064379   -0.01672133    0.00398969
     atom   21 type  4   force =    -0.01986536   -0.00868403    0.01603266
     atom   22 type  4   force =     0.02942896   -0.00131544    0.00594989
     atom   23 type  2   force =    -0.03140275   -0.04776977    0.00248028
     atom   24 type  3   force =     0.00818344    0.00790012    0.01909812
     atom   25 type  3   force =    -0.05798987    0.05771960   -0.04214331
     atom   26 type  4   force =    -0.09004582    0.01515228    0.00032639
     atom   27 type  4   force =     0.00249663   -0.02743737    0.04362130
     atom   28 type  4   force =     0.01452997   -0.08058775   -0.05910672
     atom   29 type  4   force =     0.01841187    0.03562288   -0.00595358
     atom   30 type  4   force =    -0.03651705    0.02566430    0.03273538
     atom   31 type  4   force =     0.01340662    0.02844770   -0.01194699
     atom   32 type  4   force =    -0.23432709   -0.23506060    0.18537569
     atom   33 type  4   force =    -0.00439252   -0.01615862   -0.00429103
     atom   34 type  4   force =     0.05790556   -0.01024545    0.00960995
     atom   35 type  4   force =    -0.02969963    0.02148193   -0.00019690
     atom   36 type  2   force =     0.02179132    0.06137702   -0.03051587
     atom   37 type  3   force =     0.04178787    0.00396767   -0.01330361
     atom   38 type  3   force =    -0.01783690   -0.03178234   -0.05385453
     atom   39 type  4   force =    -0.02770792    0.03039395    0.00748337
     atom   40 type  4   force =     0.03649445   -0.05457047   -0.12758146
     atom   41 type  4   force =    -0.06545169   -0.05464534    0.01345504
     atom   42 type  4   force =     0.00631056    0.02164584    0.01227793
     atom   43 type  4   force =    -0.01430881   -0.00943363    0.04022390
     atom   44 type  4   force =     0.01870818    0.00190137    0.05552319
     atom   45 type  4   force =     0.02068812   -0.03193770   -0.00024393
     atom   46 type  4   force =    -0.03835741   -0.00424865    0.03251618
     atom   47 type  1   force =     0.00280395   -0.01906505    0.00596871
     atom   48 type  1   force =     0.01669168   -0.00441133   -0.02797543
     atom   49 type  1   force =     0.00752553    0.00080157   -0.00252146
     atom   50 type  2   force =     0.00825928   -0.00559312    0.03314978
     atom   51 type  3   force =     0.05860751    0.00244951    0.04427599
     atom   52 type  3   force =     0.02084131    0.03226543    0.00156865
     atom   53 type  3   force =     0.08593857    0.02760826    0.01023319
     atom   54 type  3   force =    -0.05929249    0.02545628    0.05181724
     atom   55 type  3   force =    -0.05921698    0.04329144    0.00421922
     atom   56 type  3   force =     0.01619545   -0.01339282    0.01825270
     atom   57 type  4   force =     0.02379092   -0.02618600   -0.00102806
     atom   58 type  4   force =    -0.02510273   -0.02944665   -0.02355533
     atom   59 type  4   force =    -0.01239762   -0.00007799   -0.01694795
     atom   60 type  4   force =    -0.01436873   -0.02541712   -0.00198881
     atom   61 type  4   force =     0.01460966    0.01070002   -0.01637405
     atom   62 type  4   force =     0.06727688    0.01793383   -0.04783864
     atom   63 type  4   force =    -0.01540710   -0.03774623   -0.04141255
     atom   64 type  4   force =    -0.03517359   -0.01575196    0.04257433
     atom   65 type  4   force =     0.02447824    0.00951988   -0.05054199
     atom   66 type  4   force =     0.02514651   -0.00334405    0.01171090
     atom   67 type  4   force =    -0.02869960    0.00947726    0.00438776
     atom   68 type  4   force =    -0.01520060   -0.01820582   -0.01618385
     atom   69 type  4   force =     0.01938398   -0.00156900    0.00341533
     atom   70 type  4   force =    -0.00210586    0.01339295   -0.03844995
     atom   71 type  4   force =    -0.08717444    0.01681543   -0.07542761
     atom   72 type  4   force =    -0.01892055    0.00112592    0.02321334
     atom   73 type  1   force =    -0.00348839    0.00487551   -0.00147668
     atom   74 type  2   force =    -0.01618499   -0.05524596    0.04344764
     atom   75 type  2   force =    -0.01551676   -0.00388671    0.01744842
     atom   76 type  3   force =    -0.00826724    0.01725831   -0.04316907
     atom   77 type  3   force =    -0.00403839   -0.02583670   -0.04170134
     atom   78 type  3   force =     0.02594795    0.01046774   -0.04621526
     atom   79 type  3   force =     0.13450143   -0.02777350    0.02378587
     atom   80 type  3   force =     0.00226419   -0.02857972   -0.07666443
     atom   81 type  3   force =     0.06634307   -0.00042264    0.03616663
     atom   82 type  4   force =     0.01004153    0.01227385    0.02617426
     atom   83 type  4   force =    -0.01828390    0.00955678    0.00231799
     atom   84 type  4   force =     0.01181656    0.04749285   -0.00397520
     atom   85 type  4   force =     0.01012788   -0.01022734   -0.01363303
     atom   86 type  4   force =    -0.01872425    0.00346813   -0.00305204
     atom   87 type  4   force =    -0.02753680    0.02383841   -0.00861797
     atom   88 type  4   force =    -0.00501846   -0.02885786   -0.01426773
     atom   89 type  4   force =    -0.01951340    0.01684068   -0.03086659
     atom   90 type  4   force =     0.00257187    0.05156641    0.00817482
     atom   91 type  4   force =     0.00959383    0.05653159   -0.00961298
     atom   92 type  4   force =     0.00201305    0.02613106    0.03476274
     atom   93 type  4   force =     0.00064561    0.01812357    0.02404687
     atom   94 type  4   force =    -0.02801522   -0.00981818    0.00707707
     atom   95 type  4   force =    -0.00416157   -0.01263259    0.00072996
     atom   96 type  4   force =    -0.06078972    0.00606925   -0.00191640
     atom   97 type  1   force =    -0.00253042   -0.00928896    0.00649224
     atom   98 type  1   force =     0.01356292    0.00465137    0.01372883
     atom   99 type  1   force =    -0.00794986    0.00521012   -0.02385860
     atom  100 type  2   force =    -0.04675847   -0.02026592    0.04613181
     atom  101 type  2   force =     0.02879743    0.02427836    0.01330618
     atom  102 type  3   force =     0.03323367    0.02474090   -0.02051167
     atom  103 type  3   force =    -0.06874832   -0.03533198   -0.02622443
     atom  104 type  3   force =    -0.03987732    0.03630680    0.01048305
     atom  105 type  3   force =     0.00683599    0.04962950   -0.03947261
     atom  106 type  3   force =    -0.02107842   -0.03450830    0.03431833
     atom  107 type  3   force =     0.07866423    0.02892206    0.10589302
     atom  108 type  4   force =    -0.00359623   -0.01316220    0.00218163
     atom  109 type  4   force =     0.10819572   -0.04557494    0.01235747
     atom  110 type  4   force =    -0.00944518    0.00360115    0.01575959
     atom  111 type  4   force =    -0.00263331   -0.04393451   -0.00435671
     atom  112 type  4   force =    -0.01679023    0.00840461    0.00245331
     atom  113 type  4   force =     0.01483979    0.00443515   -0.06701548
     atom  114 type  4   force =    -0.01584123   -0.01348213    0.01718929
     atom  115 type  4   force =     0.00731175   -0.01844141   -0.02036188
     atom  116 type  4   force =    -0.01508832    0.00492856    0.00361603
     atom  117 type  4   force =    -0.00005078    0.00109687   -0.04436214
     atom  118 type  4   force =    -0.00916898   -0.02205601   -0.00426996
     atom  119 type  4   force =    -0.00299947   -0.07358198    0.00365291
     atom  120 type  4   force =    -0.01546014   -0.00519847   -0.01295769
     atom  121 type  4   force =     0.01514922    0.00275559    0.00432203
     atom  122 type  4   force =    -0.03578213    0.03185139   -0.03760792
     atom  123 type  4   force =     0.05816870   -0.00563206    0.04012619
     atom  124 type  4   force =     0.03452404    0.01885198    0.07385425
     atom  125 type  5   force =    -0.02503824    0.02718602    0.09530502
     atom  126 type  5   force =     0.01247354   -0.01237142    0.00377684
     atom  127 type  5   force =    -0.00840138    0.00056854    0.00113583
     atom  128 type  5   force =     0.02904699    0.00271538   -0.01758369
     atom  129 type  5   force =     0.02816541    0.01169450    0.01730024
     atom  130 type  5   force =     0.00346125    0.02421240    0.03817585
     atom  131 type  5   force =    -0.00402514   -0.01544773    0.01673974
     atom  132 type  5   force =     0.00769640    0.00674498    0.00089352
     atom  133 type  5   force =    -0.01141198    0.01505506   -0.01147544
     atom  134 type  5   force =     0.01388607   -0.07188794   -0.02808682
     atom  135 type  5   force =    -0.00297108    0.01777723   -0.03418588
     atom  136 type  5   force =     0.08058757    0.06220176    0.00621986
     atom  137 type  5   force =     0.00478185    0.04221269    0.07216865
     atom  138 type  5   force =     0.01657173   -0.03601555    0.02480747
     atom  139 type  5   force =    -0.00407596    0.05566939    0.03731190
     atom  140 type  5   force =     0.01068902    0.01281355   -0.01414609
     atom  141 type  1   force =    -0.00340466   -0.00447662    0.00732914
     atom  142 type  2   force =    -0.07962937    0.01602609   -0.01408718
     atom  143 type  3   force =     0.05018531   -0.15127743    0.01772983
     atom  144 type  3   force =     0.07536005   -0.04922691   -0.01774849
     atom  145 type  3   force =    -0.06591585    0.01932160   -0.02718686
     atom  146 type  3   force =     0.01763214    0.02872713   -0.04847304
     atom  147 type  3   force =    -0.08175749   -0.06355976    0.04636948
     atom  148 type  3   force =    -0.00416797    0.04732578    0.02945385
     atom  149 type  4   force =    -0.02614693    0.04320891   -0.01132473
     atom  150 type  4   force =     0.03869665   -0.04305518   -0.03349043
     atom  151 type  4   force =    -0.00556373    0.00535620    0.05457863
     atom  152 type  4   force =    -0.00814715   -0.00360717    0.02788958
     atom  153 type  4   force =     0.03894538    0.08760968   -0.11132547
     atom  154 type  4   force =    -0.03749147    0.00193780    0.00443918
     atom  155 type  4   force =    -0.01579742   -0.00988554   -0.03252624
     atom  156 type  4   force =     0.01583056    0.00854979   -0.02018138
     atom  157 type  4   force =    -0.02157152    0.10164149    0.05643667
     atom  158 type  4   force =     0.01399657    0.00011000    0.00815952
     atom  159 type  4   force =     0.01093867   -0.05541851    0.01874123
     atom  160 type  4   force =     0.05905797   -0.04873064    0.00914704
     atom  161 type  4   force =    -0.02929494    0.00614556   -0.02910124
     atom  162 type  4   force =     0.03982346    0.00041206    0.04787228
     atom  163 type  2   force =     0.03713817   -0.00450355    0.00277291
     atom  164 type  3   force =    -0.01893431   -0.00039618    0.06120582
     atom  165 type  3   force =    -0.00370331    0.03961112   -0.03661222
     atom  166 type  4   force =    -0.02734088   -0.01417539   -0.00388295
     atom  167 type  4   force =     0.01192294    0.01545212    0.01271072
     atom  168 type  4   force =     0.01274023   -0.02300171    0.00463743
     atom  169 type  4   force =     0.00958255   -0.02514434    0.03917040
     atom  170 type  4   force =    -0.01916195    0.00151618    0.04600756
     atom  171 type  4   force =    -0.00367603    0.00926885    0.01922907
     atom  172 type  4   force =    -0.04117777   -0.02238924    0.12953209
     atom  173 type  4   force =     0.00061296    0.01557852    0.01272271
     atom  174 type  4   force =    -0.03411961    0.03601277    0.02609255
     atom  175 type  4   force =    -0.03046160    0.00221997   -0.00872169
     atom  176 type  2   force =     0.01187968    0.02960587   -0.02353643
     atom  177 type  3   force =    -0.02146396   -0.04971931    0.00630447
     atom  178 type  3   force =     0.04887205   -0.05961053   -0.01445504
     atom  179 type  4   force =    -0.06146412    0.01593659    0.00639774
     atom  180 type  4   force =    -0.00259130   -0.04743298   -0.01691196
     atom  181 type  4   force =     0.03219335    0.01274168   -0.00494729
     atom  182 type  4   force =     0.02021158   -0.01604435    0.00734001
     atom  183 type  4   force =    -0.02718215    0.05884602    0.00785644
     atom  184 type  4   force =     0.01651657   -0.05248422   -0.04213211
     atom  185 type  4   force =     0.01790549   -0.04818801    0.00823983
     atom  186 type  4   force =    -0.01334145   -0.00153201    0.00622003
     atom  187 type  1   force =    -0.00379315   -0.00024066    0.00734864
     atom  188 type  1   force =    -0.00603873    0.00232649    0.01492983
     atom  189 type  1   force =     0.00919398   -0.00284427   -0.01321230
     atom  190 type  2   force =     0.02067312   -0.00477207   -0.00323167
     atom  191 type  3   force =    -0.04008139   -0.03157214   -0.05247609
     atom  192 type  3   force =     0.07608594    0.07238795   -0.02200883
     atom  193 type  3   force =     0.06851740    0.03559149    0.03914127
     atom  194 type  3   force =     0.02657319   -0.01838895    0.00826014
     atom  195 type  3   force =     0.02128981    0.05687217    0.04084431
     atom  196 type  3   force =    -0.02306307    0.00226652    0.01017501
     atom  197 type  4   force =    -0.04677577    0.00670498    0.00155152
     atom  198 type  4   force =     0.01326012    0.05199645   -0.00175265
     atom  199 type  4   force =    -0.01211479   -0.01454886   -0.02114740
     atom  200 type  4   force =    -0.02362654   -0.00906977   -0.02534433
     atom  201 type  4   force =    -0.07517755   -0.01662811    0.05622334
     atom  202 type  4   force =    -0.01619860    0.00558250    0.00192322
     atom  203 type  4   force =     0.01517492   -0.03317622    0.07692148
     atom  204 type  4   force =    -0.06843019   -0.04364738    0.06723707
     atom  205 type  4   force =     0.02329450   -0.07535762   -0.05949850
     atom  206 type  4   force =    -0.01522047    0.01489461   -0.00403332
     atom  207 type  4   force =    -0.00312106   -0.05241582   -0.01865979
     atom  208 type  4   force =    -0.02099581   -0.05116692   -0.02462690
     atom  209 type  4   force =    -0.04494250   -0.01678288    0.03659459
     atom  210 type  4   force =     0.04284816   -0.00909569   -0.01432313
     atom  211 type  4   force =     0.03334521    0.00782617    0.06236899
     atom  212 type  4   force =    -0.02943884    0.01146530   -0.02954435
     atom  213 type  1   force =     0.00230444    0.01326229   -0.01159687
     atom  214 type  2   force =    -0.00682226   -0.00723593    0.00646436
     atom  215 type  2   force =     0.00625376    0.00322951    0.03465804
     atom  216 type  3   force =    -0.03554969   -0.04945657   -0.07473934
     atom  217 type  3   force =     0.05062373   -0.05007658    0.03301786
     atom  218 type  3   force =     0.07072418   -0.01390856    0.03296048
     atom  219 type  3   force =     0.02167902   -0.01724152    0.00480687
     atom  220 type  3   force =     0.01123535    0.00021065   -0.01079172
     atom  221 type  3   force =    -0.04137853    0.02595771   -0.03698520
     atom  222 type  4   force =     0.00325381   -0.00104285    0.02323106
     atom  223 type  4   force =    -0.00429302    0.00255260   -0.00239623
     atom  224 type  4   force =    -0.00512753   -0.05561579   -0.03915283
     atom  225 type  4   force =    -0.01820429    0.00109360   -0.00817535
     atom  226 type  4   force =    -0.02445399    0.02799279    0.04684385
     atom  227 type  4   force =    -0.00296043   -0.01518976   -0.01633850
     atom  228 type  4   force =     0.03067466    0.02294633   -0.03491210
     atom  229 type  4   force =    -0.00491084   -0.00671874    0.05197395
     atom  230 type  4   force =    -0.00302158   -0.02336569   -0.04373124
     atom  231 type  4   force =     0.02776326    0.02338088   -0.02882487
     atom  232 type  4   force =    -0.05269232    0.03227369   -0.02275499
     atom  233 type  4   force =     0.01121006    0.02006469   -0.02637667
     atom  234 type  4   force =    -0.01205845    0.01365379   -0.00683107
     atom  235 type  4   force =     0.00941232   -0.02670211    0.06263597
     atom  236 type  4   force =     0.00376318    0.03029047    0.00545111
     atom  237 type  1   force =    -0.01108070    0.01090160    0.01409391
     atom  238 type  1   force =     0.00528084   -0.02187953    0.00996140
     atom  239 type  1   force =     0.00006525    0.00311151   -0.01872428
     atom  240 type  2   force =     0.04062418   -0.02533076   -0.04256443
     atom  241 type  2   force =    -0.05579855    0.08118766   -0.06678234
     atom  242 type  3   force =     0.01823868    0.05585752   -0.00800904
     atom  243 type  3   force =    -0.03287217    0.05277843    0.07969884
     atom  244 type  3   force =     0.00807839   -0.00763053   -0.02002363
     atom  245 type  3   force =    -0.01410312    0.00592308   -0.08220323
     atom  246 type  3   force =     0.01687704    0.00705168   -0.00475612
     atom  247 type  3   force =     0.07326441   -0.04482880    0.03641112
     atom  248 type  4   force =    -0.03040105    0.00517036   -0.02046688
     atom  249 type  4   force =     0.05942574   -0.01095649   -0.03052677
     atom  250 type  4   force =    -0.01475661    0.04936346    0.01187688
     atom  251 type  4   force =    -0.02972998   -0.00806382   -0.01827498
     atom  252 type  4   force =    -0.00942042   -0.01356966    0.02016640
     atom  253 type  4   force =    -0.02660197   -0.00590521   -0.01309261
     atom  254 type  4   force =    -0.00930796   -0.00371353    0.01744387
     atom  255 type  4   force =     0.06086105    0.04078702   -0.02637562
     atom  256 type  4   force =    -0.02151614    0.00325706    0.02088823
     atom  257 type  4   force =    -0.00298859    0.01416588    0.00923964
     atom  258 type  4   force =    -0.02830539   -0.00595887    0.03736788
     atom  259 type  4   force =     0.01755491   -0.03431133    0.03628161
     atom  260 type  4   force =    -0.00832024   -0.05154031   -0.01594710
     atom  261 type  4   force =    -0.05214447    0.05138491    0.00637708
     atom  262 type  4   force =    -0.03516962   -0.02740797    0.00021401
     atom  263 type  4   force =     0.02875467    0.02118111   -0.01467904
     atom  264 type  4   force =    -0.00653831    0.00339889   -0.05612952
     atom  265 type  5   force =     0.01504811   -0.01769595   -0.00555059
     atom  266 type  5   force =    -0.02671124    0.01760091   -0.00111664
     atom  267 type  5   force =    -0.00613167    0.04157999    0.01332477
     atom  268 type  5   force =    -0.02175190    0.02281294    0.02111681
     atom  269 type  5   force =     0.04106452    0.01927633    0.01329250
     atom  270 type  5   force =    -0.01917934    0.03289193   -0.07459454
     atom  271 type  5   force =    -0.01535891    0.07853883    0.04209322
     atom  272 type  5   force =     0.03315915    0.01442289   -0.04111661
     atom  273 type  5   force =     0.02937357   -0.04260879    0.05233156
     atom  274 type  5   force =     0.01184001    0.03100025    0.02518384
     atom  275 type  5   force =     0.00055028    0.02509218   -0.01470784
     atom  276 type  5   force =     0.00099045    0.00872464   -0.00271628
     atom  277 type  5   force =    -0.00200464   -0.00044667    0.00002162
     atom  278 type  5   force =     0.00197199   -0.02176388   -0.02150991
     atom  279 type  5   force =     0.01214544    0.02951570   -0.01699820
     atom  280 type  5   force =     0.04125516   -0.02791513   -0.04410358
     atom  281 type  4   force =     0.00766225   -0.01897357    0.05485353
     atom  282 type  5   force =    -0.00489160    0.00244396   -0.01618141
     atom  283 type  5   force =     0.00048321    0.01009177   -0.01292434
     atom  284 type  4   force =    -0.02054769    0.01968139    0.01484555
     atom  285 type  5   force =     0.02226926   -0.05274710   -0.01845911
     atom  286 type  5   force =    -0.00658873    0.02698103    0.01891462
     atom  287 type  4   force =     0.01337788    0.00101275    0.00384448
     atom  288 type  5   force =    -0.02193783   -0.00714104    0.00547699
     atom  289 type  5   force =     0.00100881   -0.00480615   -0.00733402
     atom  290 type  4   force =     0.00346813    0.03453455    0.03914289
     atom  291 type  5   force =     0.01673368    0.00152682   -0.03049389
     atom  292 type  5   force =    -0.00959787   -0.03613548   -0.01711549
     atom  293 type  4   force =     0.01749781    0.03135476   -0.02821016
     atom  294 type  5   force =     0.01805042    0.00922942   -0.00604445
     atom  295 type  5   force =    -0.03076415   -0.03831521    0.02751394
     atom  296 type  4   force =    -0.05974160   -0.01901325    0.03613040
     atom  297 type  5   force =     0.04127731   -0.01727626   -0.02745535
     atom  298 type  5   force =     0.01650145    0.02059599   -0.00010228
     atom  299 type  4   force =     0.04174382    0.04810080   -0.08441177
     atom  300 type  5   force =    -0.02545251   -0.02507708    0.07144932
     atom  301 type  5   force =    -0.00233985   -0.01740684    0.00498042
     atom  302 type  4   force =     0.03001025   -0.07496761    0.02787117
     atom  303 type  5   force =    -0.02043045    0.07236207   -0.00942177
     atom  304 type  5   force =    -0.00040449   -0.00982219   -0.01917470
     atom  305 type  4   force =    -0.01316856   -0.00944685    0.00189651
     atom  306 type  5   force =     0.00782143    0.00830325    0.01123726
     atom  307 type  5   force =    -0.01736331   -0.00167989   -0.02891783
     atom  308 type  4   force =     0.01020578    0.01181594    0.01416217
     atom  309 type  5   force =    -0.00652750   -0.02047376   -0.02524399
     atom  310 type  5   force =    -0.01970081   -0.00206832    0.02074316
     atom  311 type  4   force =    -0.04264437    0.00032596   -0.01292726
     atom  312 type  5   force =     0.02747401   -0.02879467    0.04340089
     atom  313 type  5   force =     0.01362218    0.03159229   -0.03121094
     atom  314 type  4   force =    -0.00691588    0.00958547    0.01859850
     atom  315 type  5   force =     0.00309479   -0.00530896    0.01102728
     atom  316 type  5   force =     0.00205955   -0.00630087   -0.00066746
     atom  317 type  4   force =     0.01909241   -0.00129343    0.03189564
     atom  318 type  5   force =    -0.01442833    0.00548806   -0.02155692
     atom  319 type  5   force =    -0.00046392    0.00333243   -0.01621434
     atom  320 type  4   force =    -0.02729682   -0.00116960   -0.03441489
     atom  321 type  5   force =     0.01062616    0.01275446   -0.02589357
     atom  322 type  5   force =     0.03426406   -0.00070080    0.05469113
     atom  323 type  4   force =     0.00658980   -0.03222097   -0.01954273
     atom  324 type  5   force =    -0.04875080    0.04222803    0.00952422
     atom  325 type  5   force =     0.03578598   -0.00766076    0.00732724
     atom  326 type  4   force =     0.01288825    0.01190480   -0.05587366
     atom  327 type  5   force =    -0.00248992   -0.00675580    0.00383756
     atom  328 type  5   force =    -0.01200272    0.00654871    0.05175260
     atom  329 type  4   force =     0.03136563   -0.03240847    0.04173780
     atom  330 type  5   force =    -0.00866492   -0.00469901   -0.02098031
     atom  331 type  5   force =    -0.03817204    0.02783761   -0.03196376
     atom  332 type  4   force =     0.00974490    0.05123007    0.03491298
     atom  333 type  5   force =     0.02002380   -0.03193798   -0.02873212
     atom  334 type  5   force =    -0.02507063   -0.01943402   -0.00003397
     atom  335 type  4   force =     0.00729391    0.01934987   -0.00267782
     atom  336 type  5   force =     0.01193097    0.02556705   -0.02414005
     atom  337 type  5   force =    -0.01174432   -0.03498086    0.01863032
     atom  338 type  4   force =    -0.00925543    0.00570759    0.03166903
     atom  339 type  5   force =     0.00598438   -0.02091014   -0.01245872
     atom  340 type  5   force =    -0.00682964    0.00155461   -0.02200250
     atom  341 type  4   force =    -0.00689210    0.00817112    0.01364219
     atom  342 type  5   force =    -0.01474567    0.01986372    0.00311619
     atom  343 type  5   force =     0.02794632   -0.01525759   -0.02654903
     atom  344 type  4   force =     0.04802533   -0.04220356   -0.04226429
     atom  345 type  5   force =    -0.02888755    0.04507771    0.05313764
     atom  346 type  5   force =    -0.01472961   -0.01534758   -0.03556106
     atom  347 type  4   force =    -0.04234006   -0.00906917   -0.05552802
     atom  348 type  5   force =     0.03604810    0.02259001    0.06612225
     atom  349 type  5   force =     0.00073556   -0.00792771   -0.00887482
     atom  350 type  4   force =     0.00842821   -0.00541055   -0.00841922
     atom  351 type  5   force =    -0.00664984   -0.00423288   -0.00327055
     atom  352 type  5   force =     0.01081241    0.00055611   -0.00582642
     atom  353 type  4   force =    -0.03949929   -0.03325684    0.02279642
     atom  354 type  5   force =     0.02767098    0.02273201    0.00482597
     atom  355 type  5   force =    -0.00055051    0.00664740   -0.01154187
     atom  356 type  4   force =    -0.04911030   -0.01910240    0.02791090
     atom  357 type  5   force =     0.03808357    0.00498523   -0.02702244
     atom  358 type  5   force =    -0.00803244    0.00830568   -0.00568126
     atom  359 type  4   force =     0.01012783    0.00834001   -0.01682610
     atom  360 type  5   force =    -0.01919509   -0.01597352    0.02905613
     atom  361 type  5   force =     0.00920124    0.01683655    0.00093699
     atom  362 type  4   force =    -0.03052729   -0.02166915    0.05497435
     atom  363 type  5   force =     0.03923672    0.01370864   -0.01438268
     atom  364 type  5   force =    -0.00451792    0.01056994   -0.02257835
     atom  365 type  4   force =     0.00252471    0.02294208    0.05764965
     atom  366 type  5   force =     0.01839756   -0.03227198   -0.04941965
     atom  367 type  5   force =     0.00687442    0.03070270   -0.01046987
     atom  368 type  4   force =    -0.05607096   -0.06244975    0.02386273
     atom  369 type  5   force =     0.00408618    0.04199455   -0.02450503
     atom  370 type  5   force =     0.05099333    0.02668186    0.00107443
     atom  371 type  4   force =    -0.01831354   -0.09511408   -0.06507422
     atom  372 type  5   force =    -0.01764777    0.00594735   -0.01072640
     atom  373 type  5   force =     0.00708477    0.06678947    0.02124820
     atom  374 type  4   force =    -0.07392145   -0.01204300    0.02013064
     atom  375 type  5   force =     0.06467663    0.03700646   -0.00940548
     atom  376 type  5   force =     0.00735221   -0.02300287   -0.00410549
     atom  377 type  4   force =     0.00174791    0.00195418   -0.00507546
     atom  378 type  5   force =     0.00010410   -0.00481196   -0.00217566
     atom  379 type  5   force =    -0.01471791    0.01139647   -0.00712211
     atom  380 type  4   force =    -0.01463089   -0.03793103   -0.03790733
     atom  381 type  5   force =     0.01802055    0.06431215   -0.02727445
     atom  382 type  5   force =    -0.00607804   -0.01399933    0.06235430
     atom  383 type  4   force =     0.01131775   -0.00860896   -0.01121358
     atom  384 type  5   force =     0.00212960   -0.03784857    0.02243871
     atom  385 type  5   force =    -0.00131484    0.03372337   -0.01794504
     atom  386 type  4   force =    -0.03534620    0.05534732   -0.03292190
     atom  387 type  5   force =    -0.01019104   -0.02541126   -0.00131894
     atom  388 type  5   force =     0.03216924   -0.02343378    0.02781296
     atom  389 type  4   force =     0.04935777   -0.03728965    0.07257641
     atom  390 type  5   force =     0.00047488   -0.05423043   -0.01465411
     atom  391 type  5   force =    -0.04809992    0.08699715   -0.05862038
     atom  392 type  4   force =    -0.00169101    0.06706209   -0.02451586
     atom  393 type  5   force =     0.01303550   -0.02960960    0.01957809
     atom  394 type  5   force =    -0.01414350   -0.01338983    0.01959483
     atom  395 type  4   force =     0.00736030   -0.00822907   -0.02842026
     atom  396 type  5   force =    -0.01069537    0.03263590    0.02814657
     atom  397 type  5   force =     0.00436251   -0.01628348    0.00556651
     atom  398 type  4   force =     0.02113550   -0.04737317    0.06081939
     atom  399 type  5   force =     0.01943380    0.01487338   -0.05087503
     atom  400 type  5   force =    -0.02833127    0.01130986   -0.01858551
     atom  401 type  4   force =    -0.05423842   -0.02876762    0.02129297
     atom  402 type  5   force =     0.02807791    0.00329839   -0.01733296
     atom  403 type  5   force =     0.00181421    0.00693696   -0.00902361
     atom  404 type  4   force =     0.02230516   -0.01387090   -0.00820164
     atom  405 type  5   force =    -0.01857672    0.01981032   -0.00241264
     atom  406 type  5   force =    -0.00396211   -0.00827011    0.00407480
     atom  407 type  4   force =     0.02174586   -0.00934772    0.00610676
     atom  408 type  5   force =    -0.03920015   -0.01271792   -0.02305319
     atom  409 type  5   force =     0.01826165    0.01172554    0.02412086
     atom  410 type  4   force =     0.00664457   -0.01894061    0.00608316
     atom  411 type  5   force =     0.00852254   -0.01025286   -0.00683408
     atom  412 type  5   force =    -0.00795174    0.02253824    0.02087424
     atom  413 type  4   force =     0.04670872   -0.00320696    0.03232832
     atom  414 type  5   force =     0.00698374    0.01250304   -0.02721191
     atom  415 type  5   force =    -0.05116142   -0.02289284   -0.01448656
     atom  416 type  4   force =    -0.02978698    0.06481702   -0.03137149
     atom  417 type  5   force =     0.02595381   -0.03903826   -0.01020569
     atom  418 type  5   force =     0.00428121   -0.02153325    0.03244969
     atom  419 type  4   force =    -0.05612217   -0.04346697    0.08393836
     atom  420 type  5   force =     0.02618499   -0.02005992   -0.02645860
     atom  421 type  5   force =     0.02892341    0.06150695   -0.06271058
     atom  422 type  4   force =    -0.01512752   -0.03484222   -0.16200845
     atom  423 type  5   force =     0.01379477    0.00684803   -0.00604198
     atom  424 type  5   force =     0.00612911    0.00436436    0.00085223
     atom  425 type  4   force =    -0.03644555   -0.00743479    0.02836081
     atom  426 type  5   force =     0.00300782    0.00571441   -0.02421691
     atom  427 type  5   force =     0.03619637    0.00483355    0.01067372
     atom  428 type  4   force =    -0.00283586   -0.02708036    0.02476774
     atom  429 type  5   force =    -0.00959623    0.03524218   -0.02150109
     atom  430 type  5   force =     0.02007577   -0.01442036   -0.00805241
     atom  431 type  4   force =    -0.02047140    0.03389460    0.03069484
     atom  432 type  5   force =     0.02555987   -0.01203020   -0.01443355
     atom  433 type  5   force =    -0.00578442   -0.01894520   -0.02021162
     atom  434 type  4   force =    -0.00813954   -0.02239507    0.03052931
     atom  435 type  5   force =    -0.00651238   -0.00589444   -0.03538391
     atom  436 type  5   force =    -0.00339007    0.00783044   -0.01079798
     atom  437 type  4   force =     0.02981843    0.00063187    0.00276405
     atom  438 type  5   force =    -0.01708018    0.00161684    0.01414004
     atom  439 type  5   force =     0.00434911    0.01733325    0.00817277
     atom  440 type  4   force =    -0.01943810    0.00107224   -0.00116581
     atom  441 type  5   force =    -0.01664878    0.01711261    0.00084110
     atom  442 type  5   force =     0.02609465   -0.00356560    0.00576172
     atom  443 type  4   force =    -0.01101483    0.02172064    0.01551069
     atom  444 type  5   force =    -0.00940821    0.00570107   -0.00699283
     atom  445 type  5   force =     0.02333367   -0.03318268   -0.00258386
     atom  446 type  4   force =    -0.02674055   -0.00081515   -0.07225211
     atom  447 type  5   force =    -0.02262090   -0.00005304    0.00672724
     atom  448 type  5   force =     0.03527836    0.02093677    0.06694130
     atom  449 type  4   force =    -0.00333998    0.02109607    0.09548674
     atom  450 type  5   force =     0.01062168   -0.02716528   -0.08540195
     atom  451 type  5   force =    -0.01033452    0.01293463   -0.01258981
     atom  452 type  4   force =     0.00602221    0.02507387   -0.02575504
     atom  453 type  5   force =    -0.01798724   -0.03116483    0.05674614
     atom  454 type  5   force =     0.01359385    0.01800066   -0.02555098
     atom  455 type  4   force =     0.03024174   -0.00911651    0.07816923
     atom  456 type  5   force =     0.00857518    0.00300464   -0.01747652
     atom  457 type  5   force =    -0.03672286    0.00537392   -0.06106932
     atom  458 type  4   force =    -0.02418924   -0.01285103    0.04109503
     atom  459 type  5   force =     0.05191033    0.00782397   -0.01814447
     atom  460 type  5   force =    -0.00877404   -0.00702257   -0.01085864
     atom  461 type  4   force =    -0.01012109    0.04900371    0.04960100
     atom  462 type  5   force =     0.01946114   -0.01674315    0.02370088
     atom  463 type  5   force =    -0.00329898   -0.03809215   -0.06526679
     atom  464 type  4   force =     0.02656497   -0.06005984    0.00540722
     atom  465 type  5   force =    -0.00558346    0.00734864   -0.01825837
     atom  466 type  5   force =    -0.02394214    0.05413697    0.02033209
     atom  467 type  4   force =     0.05082571   -0.01589745   -0.02387876
     atom  468 type  5   force =    -0.04562655    0.03588011    0.03917395
     atom  469 type  5   force =     0.00845894   -0.00794775   -0.01616854
     atom  470 type  4   force =     0.20983974    0.13874324   -0.19164146
     atom  471 type  5   force =     0.01536635    0.01830069    0.00612806
     atom  472 type  5   force =    -0.05573639   -0.02811346   -0.02101589
     atom  473 type  4   force =    -0.00297070    0.01139002   -0.04517369
     atom  474 type  5   force =     0.02017568   -0.01511920    0.01939264
     atom  475 type  5   force =    -0.01025224   -0.00229196    0.02621569
     atom  476 type  4   force =     0.02443836   -0.00959170    0.03679112
     atom  477 type  5   force =    -0.00744436   -0.00137627    0.01041183
     atom  478 type  5   force =    -0.01748466    0.02178562   -0.05057148
     atom  479 type  4   force =     0.01907405   -0.07217990    0.02071950
     atom  480 type  5   force =    -0.02404952    0.08165218    0.00467302
     atom  481 type  5   force =    -0.00540652    0.00401466   -0.02060250
     atom  482 type  4   force =     0.02789715    0.04786952    0.02679792
     atom  483 type  5   force =     0.00332270    0.00583917   -0.00938594
     atom  484 type  5   force =    -0.01834599   -0.03627419   -0.03224180
     atom  485 type  4   force =    -0.01134704   -0.08867366    0.01367624
     atom  486 type  5   force =    -0.01114618    0.02415892    0.00132441
     atom  487 type  5   force =     0.00063597    0.06714412   -0.03147744
     atom  488 type  4   force =     0.02934459   -0.03924243   -0.02740537
     atom  489 type  5   force =     0.00492464    0.03646737    0.01624806
     atom  490 type  5   force =    -0.02113286    0.01233899    0.00453465
     atom  491 type  4   force =     0.02152290    0.04657536   -0.02879069
     atom  492 type  5   force =    -0.03103666    0.00477695   -0.02622042
     atom  493 type  5   force =     0.02146525   -0.05623172    0.03170284

     Total force =     1.315581     Total SCF correction =     0.000595
     Message from routine punch:
     Nothing written, as per user request (disk_io='none')

     init_run     :     35.37s CPU     36.45s WALL (       1 calls)
     electrons    :    796.28s CPU    811.24s WALL (       1 calls)
     forces       :      8.99s CPU      9.64s WALL (       1 calls)

     Called by init_run:
     wfcinit      :     31.94s CPU     32.70s WALL (       1 calls)
     potinit      :      0.16s CPU      0.34s WALL (       1 calls)
     hinit0       :      1.42s CPU      1.47s WALL (       1 calls)

     Called by electrons:
     c_bands      :    662.68s CPU    675.08s WALL (      12 calls)
     sum_band     :    130.56s CPU    132.00s WALL (      12 calls)
     v_of_rho     :      2.38s CPU      3.41s WALL (      13 calls)
     mix_rho      :      0.56s CPU      0.76s WALL (      12 calls)

     Called by c_bands:
     init_us_2    :      2.86s CPU      3.01s WALL (      25 calls)
     init_us_2:cp :      2.86s CPU      3.01s WALL (      25 calls)
     regterg      :    659.40s CPU    670.49s WALL (      12 calls)

     Called by *egterg:
     rdiaghg      :      6.50s CPU      7.09s WALL (      40 calls)
     h_psi        :    585.70s CPU    593.28s WALL (      41 calls)
     g_psi        :      0.33s CPU      0.33s WALL (      28 calls)

     Called by h_psi:
     h_psi:calbec :     42.14s CPU     43.64s WALL (      41 calls)
     vloc_psi     :    124.46s CPU    125.80s WALL (      41 calls)
     add_vuspsi   :     38.23s CPU     38.93s WALL (      41 calls)
     h_psi_meta   :    379.64s CPU    383.68s WALL (      41 calls)

     General routines
     calbec       :     47.78s CPU     49.49s WALL (      45 calls)
     fft          :      2.80s CPU      3.51s WALL (     129 calls)
     ffts         :      0.14s CPU      0.26s WALL (      24 calls)
     fftw         :    573.14s CPU    578.94s WALL (  149792 calls)
     interpolate  :      0.01s CPU      0.01s WALL (      13 calls)

     Parallel routines

     PWSCF        :  14m 0.82s CPU  14m17.97s WALL


   This run was terminated on:  14: 1:52   8Mar2025            

=------------------------------------------------------------------------------=
   JOB DONE.
=------------------------------------------------------------------------------=
