
     Program PWSCF v.7.3 starts on  9Mar2025 at 11:57:23 

     This program is part of the open-source Quantum ESPRESSO suite
     for quantum simulation of materials; please cite
         "P. Giannozzi et al., J. Phys.:Condens. Matter 21 395502 (2009);
         "P. Giannozzi et al., J. Phys.:Condens. Matter 29 465901 (2017);
         "P. Giannozzi et al., J. Chem. Phys. 152 154105 (2020);
          URL http://www.quantum-espresso.org", 
     in publications or presentations arising from this work. More details at
     http://www.quantum-espresso.org/quote

     Parallel version (MPI & OpenMP), running on     120 processor cores
     Number of MPI processes:               120
     Threads/MPI process:                     1

     MPI processes distributed on     1 nodes
     616726 MiB available memory on the printing compute node when the environment starts

     Reading input from pw-water-95.in
Warning: card &CELL ignored
Warning: card / ignored
Warning: card &FCP ignored
Warning: card / ignored
Warning: card &RISM ignored
Warning: card / ignored

     Current dimensions of program PWSCF are:
     Max number of different atomic species (ntypx) = 10
     Max number of k-points (npk) =  40000
     Max angular momentum in pseudopotentials (lmaxx) =  4

     IMPORTANT: XC functional enforced from input :
     Exchange-correlation= SCAN
                           (   0   0   0   0   0 263 267)
     Any further DFT definition will be discarded
     Please, verify this is what you really want


     gamma-point specific algorithms are used

     R & G space division:  proc/nbgrp/npool/nimage =     120
     Subspace diagonalization in iterative solution of the eigenvalue problem:
     one sub-group per band group will be used
     ELPA distributed-memory algorithm (size of sub-group: 10* 10 procs)


     Parallelization info
     --------------------
     sticks:   dense  smooth     PW     G-vecs:    dense   smooth      PW
     Min         223     223     55                53054    53054    6618
     Max         226     226     58                53096    53096    6642
     Sum       27001   27001   6747              6368777  6368777  796049

     Using Slab Decomposition



     bravais-lattice index     =            0
     lattice parameter (alat)  =      27.1743  a.u.
     unit-cell volume          =   40863.0649 (a.u.)^3
     number of atoms/cell      =          493
     number of atomic types    =            5
     number of electrons       =      2104.00
     number of Kohn-Sham states=         1052
     kinetic-energy cutoff     =     110.0000  Ry
     charge density cutoff     =     440.0000  Ry
     scf convergence threshold =      1.0E-06
     mixing beta               =       0.5000
     number of iterations used =            8  plain     mixing
     Exchange-correlation= SCAN
                           (   0   0   0   0   0 263 267)

     celldm(1)=  27.174262  celldm(2)=   0.000000  celldm(3)=   0.000000
     celldm(4)=   0.000000  celldm(5)=   0.000000  celldm(6)=   0.000000

     crystal axes: (cart. coord. in units of alat)
               a(1) = (   1.000000   0.000000   0.000000 )  
               a(2) = (   0.263718   1.045271   0.000000 )  
               a(3) = (  -1.114529  -1.155389   1.948179 )  

     reciprocal axes: (cart. coord. in units 2 pi/alat)
               b(1) = (  1.000000 -0.252296  0.422460 )  
               b(2) = ( -0.000000  0.956690  0.567375 )  
               b(3) = (  0.000000  0.000000  0.513300 )  


     PseudoPot. # 1 for K  read from file:
     /scratch/zhouwq/DFT-feldspar-surface/script-dft/K_ONCV_PBE_sr.upf
     MD5 check sum: 1b7a13238029e3acac828725779bbc07
     Pseudo is Norm-conserving, Zval =  9.0
     Generated using ONCVPSP code by D. R. Hamann
     Using radial grid of 2222 points,  6 beta functions with: 
                l(1) =   0
                l(2) =   0
                l(3) =   1
                l(4) =   1
                l(5) =   2
                l(6) =   2

     PseudoPot. # 2 for Al read from file:
     /scratch/zhouwq/DFT-feldspar-surface/script-dft/Al_ONCV_PBE_sr.upf
     MD5 check sum: f1d308f5052db2acb2ab62005e7ebd82
     Pseudo is Norm-conserving, Zval = 11.0
     Generated using ONCVPSP code by D. R. Hamann
     Using radial grid of 1876 points,  4 beta functions with: 
                l(1) =   0
                l(2) =   0
                l(3) =   1
                l(4) =   1

     PseudoPot. # 3 for Si read from file:
     /scratch/zhouwq/DFT-feldspar-surface/script-dft/Si_ONCV_PBE_sr.upf
     MD5 check sum: 8553c464762ac42b85b1eed164b4d029
     Pseudo is Norm-conserving, Zval =  4.0
     Generated using ONCVPSP code by D. R. Hamann
     Using radial grid of 1510 points,  4 beta functions with: 
                l(1) =   0
                l(2) =   0
                l(3) =   1
                l(4) =   1

     PseudoPot. # 4 for O  read from file:
     /scratch/zhouwq/DFT-feldspar-surface/script-dft/O_ONCV_PBE_sr.upf
     MD5 check sum: 503208cc3dd01d9a06cc7045986f7d49
     Pseudo is Norm-conserving, Zval =  6.0
     Generated using ONCVPSP code by D. R. Hamann
     Using radial grid of  936 points,  4 beta functions with: 
                l(1) =   0
                l(2) =   0
                l(3) =   1
                l(4) =   1

     PseudoPot. # 5 for H  read from file:
     /scratch/zhouwq/DFT-feldspar-surface/script-dft/H_ONCV_PBE_sr.upf
     MD5 check sum: 8975ef619c0c80d0ef0fa21f3286b90d
     Pseudo is Norm-conserving, Zval =  1.0
     Generated using ONCVPSP code by D. R. Hamann
     Using radial grid of 1166 points,  2 beta functions with: 
                l(1) =   0
                l(2) =   0

     atomic species   valence    mass     pseudopotential
     K                 9.00    39.09830     K ( 1.00)
     Al               11.00    26.98154     Al( 1.00)
     Si                4.00    28.08500     Si( 1.00)
     O                 6.00    15.99900     O ( 1.00)
     H                 1.00     1.00800     H ( 1.00)

     No symmetry found



   Cartesian axes

     site n.     atom                  positions (alat units)
         1        K      tau(   1) = (  -0.9127745  -0.9234451   2.7437877  )
         2        Al     tau(   2) = (  -1.1757182  -1.6594783   2.7998173  )
         3        Si     tau(   3) = (  -1.0472907  -0.8445300   2.9712626  )
         4        Si     tau(   4) = (  -1.4614318  -1.6608862   2.8142171  )
         5        Si     tau(   5) = (  -1.1873113  -0.8171418   2.8138219  )
         6        Si     tau(   6) = (  -1.3132851  -1.6888835   2.9704889  )
         7        Si     tau(   7) = (  -0.9834449  -0.7263284   2.6215589  )
         8        Si     tau(   8) = (  -1.3259379  -1.5262001   2.7114924  )
         9        O      tau(   9) = (  -1.5671865  -1.6390104   2.8344615  )
        10        O      tau(  10) = (  -1.2070107  -0.8876353   2.7322099  )
        11        O      tau(  11) = (  -1.2674696  -0.8172493   2.8899123  )
        12        O      tau(  12) = (  -1.2224393  -1.6905696   2.9087762  )
        13        O      tau(  13) = (  -0.9178995  -0.6880144   2.5385053  )
        14        O      tau(  14) = (  -1.4216820  -1.5714443   2.7621674  )
        15        O      tau(  15) = (  -1.3380834  -1.5348579   2.5962159  )
        16        O      tau(  16) = (  -0.9362094  -0.7062989   2.7183890  )
        17        O      tau(  17) = (  -1.3293636  -1.7898532   3.0252829  )
        18        O      tau(  18) = (  -1.1844773  -0.7145378   2.7598184  )
        19        O      tau(  19) = (  -1.0909806  -0.6822784   2.6083892  )
        20        O      tau(  20) = (  -1.2282696  -1.5580824   2.7500664  )
        21        O      tau(  21) = (  -1.0858801  -0.8270988   2.8618919  )
        22        O      tau(  22) = (  -1.4084625  -1.6630733   2.9145150  )
        23        Al     tau(  23) = (  -1.0427662  -1.1337437   2.7995613  )
        24        Si     tau(  24) = (  -1.1821083  -0.9941592   2.7093439  )
        25        Si     tau(  25) = (  -1.0855355  -1.2403982   2.6158702  )
        26        O      tau(  26) = (  -1.4293306  -1.1108607   2.8217037  )
        27        O      tau(  27) = (  -0.9932326  -0.8386033   2.6025280  )
        28        O      tau(  28) = (  -1.0748016  -1.3515939   2.5857013  )
        29        O      tau(  29) = (  -1.2776485  -1.0493832   2.7472276  )
        30        O      tau(  30) = (  -1.0183348  -1.1807530   2.5516360  )
        31        O      tau(  31) = (  -1.0668283  -1.2212681   2.7258811  )
        32        O      tau(  32) = (  -1.1789656  -0.9981097   2.5960211  )
        33        O      tau(  33) = (  -1.0922286  -1.0322794   2.7563061  )
        34        O      tau(  34) = (  -1.1905581  -1.2132668   2.5797454  )
        35        O      tau(  35) = (  -1.8534494  -1.9565804   3.6735144  )
        36        Al     tau(  36) = (  -1.5980858  -1.1140431   3.4542664  )
        37        Si     tau(  37) = (  -1.4574516  -1.2396813   3.5506344  )
        38        Si     tau(  38) = (  -1.8176378  -2.0596874   3.6389593  )
        39        O      tau(  39) = (  -1.2140436  -1.1406804   3.4444364  )
        40        O      tau(  40) = (  -1.7267604  -1.4126121   3.6580292  )
        41        O      tau(  41) = (  -1.3762728  -1.1665036   3.5240112  )
        42        O      tau(  42) = (  -1.8445256  -2.1400512   3.7131515  )
        43        O      tau(  43) = (  -1.8539479  -2.0779071   3.5379991  )
        44        O      tau(  44) = (  -1.4642499  -1.2383237   3.6590868  )
        45        O      tau(  45) = (  -1.5488351  -1.2181524   3.4967979  )
        46        O      tau(  46) = (  -1.7032255  -2.0502678   3.6460896  )
        47        K      tau(  47) = (  -1.7194429  -1.3409730   3.4927234  )
        48        K      tau(  48) = (  -1.3213303  -1.7139819   3.2201453  )
        49        K      tau(  49) = (  -1.8623471  -1.8395098   3.5090269  )
        50        Al     tau(  50) = (  -1.7284907  -1.6283027   3.4555355  )
        51        Si     tau(  51) = (  -1.5839708  -1.3934981   3.2820362  )
        52        Si     tau(  52) = (  -1.4474637  -1.6207886   3.4474867  )
        53        Si     tau(  53) = (  -1.4400014  -1.4162190   3.4386642  )
        54        Si     tau(  54) = (  -1.5866689  -1.5988211   3.2859604  )
        55        Si     tau(  55) = (  -1.6890076  -1.5151070   3.6369388  )
        56        Si     tau(  56) = (  -1.5863733  -1.7545691   3.5477122  )
        57        O      tau(  57) = (  -1.3436918  -1.6602634   3.4327084  )
        58        O      tau(  58) = (  -1.4186583  -1.3424801   3.5183782  )
        59        O      tau(  59) = (  -1.5502928  -1.8566463   3.5171313  )
        60        O      tau(  60) = (  -1.5923748  -1.6825821   3.2110334  )
        61        O      tau(  61) = (  -1.3536221  -1.4120305   3.3667486  )
        62        O      tau(  62) = (  -1.6758388  -1.6037073   3.3518367  )
        63        O      tau(  63) = (  -1.7185004  -1.5962261   3.7053588  )
        64        O      tau(  64) = (  -1.5025346  -1.6819243   3.5222077  )
        65        O      tau(  65) = (  -1.5813839  -1.7584607   3.6609459  )
        66        O      tau(  66) = (  -1.7119080  -1.5386289   3.5308576  )
        67        O      tau(  67) = (  -1.5786086  -1.4995301   3.2358810  )
        68        O      tau(  68) = (  -1.4468645  -1.5187525   3.4920499  )
        69        O      tau(  69) = (  -1.5764728  -1.5076416   3.6577732  )
        70        O      tau(  70) = (  -1.6840512  -1.7339490   3.4994196  )
        71        O      tau(  71) = (  -1.5447946  -1.3994839   3.3939841  )
        72        O      tau(  72) = (  -1.4906829  -1.6120341   3.3434651  )
        73        K      tau(  73) = (  -1.2010643  -1.1545152   3.2303816  )
        74        Al     tau(  74) = (  -1.3302298  -0.8370482   2.9885180  )
        75        Al     tau(  75) = (  -1.4397084  -1.9290725   3.2654600  )
        76        Si     tau(  76) = (  -1.3179683  -1.1047887   3.4472084  )
        77        Si     tau(  77) = (  -1.7271226  -1.9123929   3.2916880  )
        78        Si     tau(  78) = (  -1.4589063  -1.0833121   3.2845410  )
        79        Si     tau(  79) = (  -1.5782796  -1.9362541   3.4433566  )
        80        Si     tau(  80) = (  -1.1943206  -0.9779941   3.0748779  )
        81        Si     tau(  81) = (  -1.5815018  -1.7907418   3.1769681  )
        82        O      tau(  82) = (  -0.9425112  -0.8808186   2.9671770  )
        83        O      tau(  83) = (  -1.8352662  -1.8762518   3.2964360  )
        84        O      tau(  84) = (  -1.4570857  -1.1512402   3.1971846  )
        85        O      tau(  85) = (  -1.5501173  -1.0985592   3.3465877  )
        86        O      tau(  86) = (  -1.4928480  -1.9470743   3.3735004  )
        87        O      tau(  87) = (  -1.1061819  -0.9252078   3.0246817  )
        88        O      tau(  88) = (  -1.6705718  -1.8433563   3.2203179  )
        89        O      tau(  89) = (  -1.5893382  -1.7893096   3.0655323  )
        90        O      tau(  90) = (  -1.1827087  -0.9765596   3.1868649  )
        91        O      tau(  91) = (  -1.5872998  -2.0411243   3.4898624  )
        92        O      tau(  92) = (  -1.4524092  -0.9733121   3.2520231  )
        93        O      tau(  93) = (  -1.2917492  -0.9417842   3.0362762  )
        94        O      tau(  94) = (  -1.4812796  -1.8283014   3.2133044  )
        95        O      tau(  95) = (  -1.3696062  -1.1095974   3.3460645  )
        96        O      tau(  96) = (  -1.6766746  -1.9091653   3.3949860  )
        97        K      tau(  97) = (  -1.4504680  -1.0891351   3.0105880  )
        98        K      tau(  98) = (  -1.0598746  -1.4487352   2.7527883  )
        99        K      tau(  99) = (  -1.5781021  -1.5927479   3.0219320  )
       100        Al     tau( 100) = (  -1.2966288  -1.3989994   3.2575392  )
       101        Al     tau( 101) = (  -1.4649141  -1.3660408   2.9754930  )
       102        Si     tau( 102) = (  -1.3219917  -1.1381608   2.8058177  )
       103        Si     tau( 103) = (  -1.1792122  -1.3664930   2.9652010  )
       104        Si     tau( 104) = (  -1.1841349  -1.1600639   2.9668319  )
       105        Si     tau( 105) = (  -1.3257474  -1.3354905   2.8055505  )
       106        Si     tau( 106) = (  -1.4401192  -1.2618586   3.1709454  )
       107        Si     tau( 107) = (  -1.3128640  -1.5014224   3.0711319  )
       108        O      tau( 108) = (  -1.6904104  -1.3639708   3.2810677  )
       109        O      tau( 109) = (  -1.0722092  -1.3898343   2.9437766  )
       110        O      tau( 110) = (  -1.1830283  -1.0902877   3.0541883  )
       111        O      tau( 111) = (  -1.2977510  -1.6152506   3.0540714  )
       112        O      tau( 112) = (  -1.3447780  -1.4151821   2.7272727  )
       113        O      tau( 113) = (  -1.0896738  -1.1529881   2.9072288  )
       114        O      tau( 114) = (  -1.4113553  -1.3295384   2.8746330  )
       115        O      tau( 115) = (  -1.5227422  -1.3221267   3.2216259  )
       116        O      tau( 116) = (  -1.2145091  -1.4559712   3.0273201  )
       117        O      tau( 117) = (  -1.3043399  -1.4837370   3.1798069  )
       118        O      tau( 118) = (  -1.4583299  -1.2699353   3.0572163  )
       119        O      tau( 119) = (  -1.3049769  -1.2398695   2.7511462  )
       120        O      tau( 120) = (  -1.1863076  -1.2644113   3.0137552  )
       121        O      tau( 121) = (  -1.3432456  -1.2934021   3.2124194  )
       122        O      tau( 122) = (  -1.4102596  -1.4622305   3.0348623  )
       123        O      tau( 123) = (  -1.2749062  -1.1507697   2.9048242  )
       124        O      tau( 124) = (  -1.2323762  -1.3574035   2.8635896  )
       125        H      tau( 125) = (  -1.7155301  -1.3832189   3.7199368  )
       126        H      tau( 126) = (  -1.9069548  -2.1719160   3.7153502  )
       127        H      tau( 127) = (  -1.5071113  -1.1875617   3.6815966  )
       128        H      tau( 128) = (  -1.6774796  -2.0637140   3.5868594  )
       129        H      tau( 129) = (  -1.9011438  -1.9585151   3.7283863  )
       130        H      tau( 130) = (  -1.7754302  -1.6228371   3.6796095  )
       131        H      tau( 131) = (  -1.6331480  -1.7330525   3.6954120  )
       132        H      tau( 132) = (  -1.5334971  -1.5108460   3.6027120  )
       133        H      tau( 133) = (  -0.9611539  -0.6592277   2.4933465  )
       134        H      tau( 134) = (  -1.0777035  -0.5573094   2.5867923  )
       135        H      tau( 135) = (  -1.1237920  -0.6922939   2.6676528  )
       136        H      tau( 136) = (  -1.0594235  -0.8582314   2.6023499  )
       137        H      tau( 137) = (  -1.0459924  -1.3635273   2.5269053  )
       138        H      tau( 138) = (  -0.9534121  -1.1909382   2.5390396  )
       139        H      tau( 139) = (  -1.1720143  -1.0585659   2.5669765  )
       140        H      tau( 140) = (  -1.2360731  -1.2112435   2.6307265  )
       141        K      tau( 141) = (  -0.4322400  -0.8990789   2.7593843  )
       142        Al     tau( 142) = (  -0.6835523  -1.6568774   2.8053001  )
       143        Si     tau( 143) = (  -0.5437597  -0.8415080   2.9671047  )
       144        Si     tau( 144) = (  -0.9534689  -1.6521425   2.8127310  )
       145        Si     tau( 145) = (  -0.6938565  -0.8201147   2.8154083  )
       146        Si     tau( 146) = (  -0.8211864  -1.6789615   2.9743463  )
       147        Si     tau( 147) = (  -0.4789327  -0.7115214   2.6191766  )
       148        Si     tau( 148) = (  -0.8103799  -1.5178318   2.7022024  )
       149        O      tau( 149) = (  -1.0609019  -1.6242772   2.8134323  )
       150        O      tau( 150) = (  -0.6958845  -0.8815743   2.7175151  )
       151        O      tau( 151) = (  -0.7820573  -0.8250521   2.8766758  )
       152        O      tau( 152) = (  -0.7316296  -1.6822613   2.9117764  )
       153        O      tau( 153) = (  -0.4255764  -0.6377478   2.5528828  )
       154        O      tau( 154) = (  -0.8992020  -1.5757035   2.7509626  )
       155        O      tau( 155) = (  -0.8054207  -1.5339124   2.5895309  )
       156        O      tau( 156) = (  -0.4479486  -0.6991987   2.7257921  )
       157        O      tau( 157) = (  -0.8304736  -1.7837209   3.0175570  )
       158        O      tau( 158) = (  -0.6710958  -0.7155790   2.7802743  )
       159        O      tau( 159) = (  -0.5850665  -0.7011554   2.5996057  )
       160        O      tau( 160) = (  -0.7188577  -1.5614425   2.7504672  )
       161        O      tau( 161) = (  -0.6009970  -0.8533506   2.8702635  )
       162        O      tau( 162) = (  -0.9144455  -1.6489964   2.9203985  )
       163        Al     tau( 163) = (  -0.5488822  -1.1359734   2.7932659  )
       164        Si     tau( 164) = (  -0.6825839  -0.9900975   2.6903797  )
       165        Si     tau( 165) = (  -0.6069143  -1.2263399   2.6133933  )
       166        O      tau( 166) = (  -0.9254188  -1.0955240   2.8119016  )
       167        O      tau( 167) = (  -0.4412083  -0.8201168   2.5969339  )
       168        O      tau( 168) = (  -0.5856666  -1.3353532   2.5779809  )
       169        O      tau( 169) = (  -0.7681622  -1.0420005   2.7540908  )
       170        O      tau( 170) = (  -0.5424907  -1.1547255   2.5434258  )
       171        O      tau( 171) = (  -0.5799054  -1.2311838   2.7215951  )
       172        O      tau( 172) = (  -0.7019550  -1.0013789   2.5799903  )
       173        O      tau( 173) = (  -0.5915648  -1.0333020   2.7298499  )
       174        O      tau( 174) = (  -0.7119416  -1.1907156   2.5821222  )
       175        O      tau( 175) = (  -1.3473200  -1.9502767   3.6705365  )
       176        Al     tau( 176) = (  -1.0953156  -1.1141936   3.4556412  )
       177        Si     tau( 177) = (  -0.9537931  -1.2410078   3.5514081  )
       178        Si     tau( 178) = (  -1.3113336  -2.0509229   3.6374564  )
       179        O      tau( 179) = (  -1.7168636  -1.1510527   3.4312389  )
       180        O      tau( 180) = (  -1.2112040  -1.4210490   3.6698741  )
       181        O      tau( 181) = (  -0.8695996  -1.1723028   3.5223580  )
       182        O      tau( 182) = (  -1.3495865  -2.1360427   3.6998538  )
       183        O      tau( 183) = (  -1.3411057  -2.0636935   3.5314421  )
       184        O      tau( 184) = (  -0.9647955  -1.2383465   3.6646753  )
       185        O      tau( 185) = (  -1.0460475  -1.2096768   3.5070230  )
       186        O      tau( 186) = (  -1.1958862  -2.0410680   3.6526578  )
       187        K      tau( 187) = (  -1.2131303  -1.3374940   3.4902854  )
       188        K      tau( 188) = (  -0.8398620  -1.7000226   3.2370833  )
       189        K      tau( 189) = (  -1.3486022  -1.8681084   3.4918829  )
       190        Al     tau( 190) = (  -1.2298951  -1.6213912   3.4546504  )
       191        Si     tau( 191) = (  -1.0755508  -1.3866131   3.2758131  )
       192        Si     tau( 192) = (  -0.9519575  -1.6236229   3.4419093  )
       193        Si     tau( 193) = (  -0.9373288  -1.4169512   3.4349850  )
       194        Si     tau( 194) = (  -1.0929166  -1.5953449   3.2825204  )
       195        Si     tau( 195) = (  -1.1730544  -1.5235723   3.6275652  )
       196        Si     tau( 196) = (  -1.0891058  -1.7588630   3.5446118  )
       197        O      tau( 197) = (  -1.8467464  -1.6598453   3.4415420  )
       198        O      tau( 198) = (  -0.9250677  -1.3465022   3.5232653  )
       199        O      tau( 199) = (  -1.0622955  -1.8646511   3.5144261  )
       200        O      tau( 200) = (  -1.0980902  -1.6745643   3.1984816  )
       201        O      tau( 201) = (  -0.8484840  -1.4181336   3.3701551  )
       202        O      tau( 202) = (  -1.1823907  -1.6020293   3.3462983  )
       203        O      tau( 203) = (  -1.2099004  -1.6094590   3.6898624  )
       204        O      tau( 204) = (  -1.0072209  -1.6850851   3.5125614  )
       205        O      tau( 205) = (  -1.0843975  -1.7520047   3.6563927  )
       206        O      tau( 206) = (  -1.2043949  -1.5203937   3.5196862  )
       207        O      tau( 207) = (  -1.0744347  -1.4936422   3.2337046  )
       208        O      tau( 208) = (  -0.9609262  -1.5197279   3.4737537  )
       209        O      tau( 209) = (  -1.0596083  -1.5325961   3.6397775  )
       210        O      tau( 210) = (  -1.1864137  -1.7242649   3.5040396  )
       211        O      tau( 211) = (  -1.0292075  -1.3875126   3.3806864  )
       212        O      tau( 212) = (  -0.9999263  -1.6311231   3.3368190  )
       213        K      tau( 213) = (  -0.6768719  -1.1717414   3.2373561  )
       214        Al     tau( 214) = (  -0.8305208  -0.8403816   2.9859853  )
       215        Al     tau( 215) = (  -0.9445603  -1.9232081   3.2650703  )
       216        Si     tau( 216) = (  -0.8170709  -1.1099692   3.4418982  )
       217        Si     tau( 217) = (  -1.2185494  -1.9161997   3.2796594  )
       218        Si     tau( 218) = (  -0.9524021  -1.0822039   3.2815074  )
       219        Si     tau( 219) = (  -1.0813876  -1.9489650   3.4376567  )
       220        Si     tau( 220) = (  -0.6786727  -0.9742691   3.0807670  )
       221        Si     tau( 221) = (  -1.0885931  -1.7812677   3.1683627  )
       222        O      tau( 222) = (  -1.4380720  -0.8547282   2.9416782  )
       223        O      tau( 223) = (  -1.3279636  -1.8984174   3.2992581  )
       224        O      tau( 224) = (  -0.9517391  -1.1451457   3.1902658  )
       225        O      tau( 225) = (  -1.0439815  -1.1000777   3.3438658  )
       226        O      tau( 226) = (  -0.9964385  -1.9635529   3.3658357  )
       227        O      tau( 227) = (  -0.5890992  -0.9258701   3.0314948  )
       228        O      tau( 228) = (  -1.1786040  -1.8340182   3.2149520  )
       229        O      tau( 229) = (  -1.0959343  -1.7894525   3.0580735  )
       230        O      tau( 230) = (  -0.6654499  -0.9746446   3.1928096  )
       231        O      tau( 231) = (  -1.0949398  -2.0490146   3.4905637  )
       232        O      tau( 232) = (  -0.9474666  -0.9742168   3.2379962  )
       233        O      tau( 233) = (  -0.7749255  -0.9308265   3.0381743  )
       234        O      tau( 234) = (  -0.9956599  -1.8222154   3.2175292  )
       235        O      tau( 235) = (  -0.8660007  -1.1143584   3.3392292  )
       236        O      tau( 236) = (  -1.1681054  -1.9142162   3.3821670  )
       237        K      tau( 237) = (  -0.9347812  -1.0619499   3.0160485  )
       238        K      tau( 238) = (  -0.5473566  -1.4220359   2.7543413  )
       239        K      tau( 239) = (  -1.0634863  -1.5846061   3.0338938  )
       240        Al     tau( 240) = (  -0.8016907  -1.3958333   3.2582795  )
       241        Al     tau( 241) = (  -0.9631109  -1.3478500   2.9704945  )
       242        Si     tau( 242) = (  -0.8176170  -1.1246390   2.8067640  )
       243        Si     tau( 243) = (  -0.6777456  -1.3649652   2.9658801  )
       244        Si     tau( 244) = (  -0.6864232  -1.1560801   2.9723481  )
       245        Si     tau( 245) = (  -0.8181078  -1.3304819   2.8051720  )
       246        Si     tau( 246) = (  -0.9374167  -1.2560359   3.1596627  )
       247        Si     tau( 247) = (  -0.8214832  -1.4882089   3.0715104  )
       248        O      tau( 248) = (  -1.1820350  -1.3560013   3.2812680  )
       249        O      tau( 249) = (  -1.5734762  -1.3973443   2.9452127  )
       250        O      tau( 250) = (  -0.6749582  -1.0888713   3.0626323  )
       251        O      tau( 251) = (  -0.8155348  -1.6029650   3.0571495  )
       252        O      tau( 252) = (  -0.8244308  -1.4084416   2.7205654  )
       253        O      tau( 253) = (  -0.5995306  -1.1555128   2.9007664  )
       254        O      tau( 254) = (  -0.9113585  -1.3314992   2.8624485  )
       255        O      tau( 255) = (  -1.0246598  -1.3165405   3.2027509  )
       256        O      tau( 256) = (  -0.7234446  -1.4473397   3.0299362  )
       257        O      tau( 257) = (  -0.8199757  -1.4859163   3.1826568  )
       258        O      tau( 258) = (  -0.9430235  -1.2551163   3.0483382  )
       259        O      tau( 259) = (  -0.8016900  -1.2246129   2.7508345  )
       260        O      tau( 260) = (  -0.6944097  -1.2621763   3.0162099  )
       261        O      tau( 261) = (  -0.8410530  -1.2853216   3.1991662  )
       262        O      tau( 262) = (  -0.9086007  -1.4418756   3.0222827  )
       263        O      tau( 263) = (  -0.7818020  -1.1332450   2.9151829  )
       264        O      tau( 264) = (  -0.7234239  -1.3555534   2.8630274  )
       265        H      tau( 265) = (  -1.2475859  -1.4375419   3.7237107  )
       266        H      tau( 266) = (  -1.4130121  -2.1665106   3.6829214  )
       267        H      tau( 267) = (  -0.9953468  -1.1797855   3.6795761  )
       268        H      tau( 268) = (  -1.1569454  -2.0651013   3.6043541  )
       269        H      tau( 269) = (  -1.3283952  -1.9304031   3.7353385  )
       270        H      tau( 270) = (  -1.2732076  -1.6279243   3.6941763  )
       271        H      tau( 271) = (  -1.1386154  -1.7146397   3.6798432  )
       272        H      tau( 272) = (  -1.0159147  -1.5210825   3.5906445  )
       273        H      tau( 273) = (  -0.3590164  -0.6346947   2.5530609  )
       274        H      tau( 274) = (  -0.4860259  -0.5198931   2.5608926  )
       275        H      tau( 275) = (  -0.6310085  -0.7031374   2.6486776  )
       276        H      tau( 276) = (  -0.4173699  -0.8425707   2.5384162  )
       277        H      tau( 277) = (  -0.6049892  -1.3473601   2.5175429  )
       278        H      tau( 278) = (  -0.5706180  -1.0929683   2.5404868  )
       279        H      tau( 279) = (  -0.7274778  -1.0617897   2.5596959  )
       280        H      tau( 280) = (  -0.7555358  -1.2114218   2.6282829  )
       281        O      tau( 281) = (  -1.6414378  -2.2525857   4.2235689  )
       282        H      tau( 282) = (  -1.6476177  -2.3204883   4.2371783  )
       283        H      tau( 283) = (  -1.6855637  -2.2367478   4.1747141  )
       284        O      tau( 284) = (  -1.9130588  -1.9788109   4.0824372  )
       285        H      tau( 285) = (  -1.9738413  -2.0050080   4.0789695  )
       286        H      tau( 286) = (  -1.8943606  -1.9941922   4.1482968  )
       287        O      tau( 287) = (  -1.4998650  -1.9387457   4.2577233  )
       288        H      tau( 288) = (  -1.4496780  -1.9759515   4.2909314  )
       289        H      tau( 289) = (  -1.5542562  -1.9808768   4.2610129  )
       290        O      tau( 290) = (  -1.3725760  -1.4732839   4.0781568  )
       291        H      tau( 291) = (  -1.3097406  -1.4561559   4.0630501  )
       292        H      tau( 292) = (  -1.4170559  -1.4286952   4.0466687  )
       293        O      tau( 293) = (  -1.6299134  -1.9334015   4.0610462  )
       294        H      tau( 294) = (  -1.6071157  -1.9220731   4.1217014  )
       295        H      tau( 295) = (  -1.5829847  -1.9189242   4.0164051  )
       296        O      tau( 296) = (  -1.2022462  -1.6374252   4.1654241  )
       297        H      tau( 297) = (  -1.2428570  -1.6430688   4.1124225  )
       298        H      tau( 298) = (  -1.2327952  -1.5951910   4.2124476  )
       299        O      tau( 299) = (  -1.6620544  -1.7677322   4.2604396  )
       300        H      tau( 300) = (  -1.7103783  -1.8145747   4.2459618  )
       301        H      tau( 301) = (  -1.6044713  -1.8039598   4.2747504  )
       302        O      tau( 302) = (  -1.3767667  -1.6697519   3.7421905  )
       303        H      tau( 303) = (  -1.4112263  -1.7030396   3.7959714  )
       304        H      tau( 304) = (  -1.4216120  -1.6764116   3.6942598  )
       305        O      tau( 305) = (  -1.4529997  -1.7350741   3.9037169  )
       306        H      tau( 306) = (  -1.4929893  -1.6868880   3.9208163  )
       307        H      tau( 307) = (  -1.4872976  -1.7947004   3.9180388  )
       308        O      tau( 308) = (  -1.5815052  -1.6248509   3.9743801  )
       309        H      tau( 309) = (  -1.5662647  -1.6292564   4.0390986  )
       310        H      tau( 310) = (  -1.6289317  -1.6765478   3.9617058  )
       311        O      tau( 311) = (  -2.0379001  -1.5725899   4.1189183  )
       312        H      tau( 312) = (  -2.1028809  -1.5795102   4.1264717  )
       313        H      tau( 313) = (  -2.0203828  -1.5140377   4.0902912  )
       314        O      tau( 314) = (  -2.0050045  -1.5138244   3.8424605  )
       315        H      tau( 315) = (  -1.0048681  -1.5605033   3.7937895  )
       316        H      tau( 316) = (  -1.0066549  -1.4561522   3.8079165  )
       317        O      tau( 317) = (  -2.0603627  -2.2735789   4.1340918  )
       318        H      tau( 318) = (  -2.0899845  -2.2150044   4.1175267  )
       319        H      tau( 319) = (  -2.0514589  -2.3048865   4.0753013  )
       320        O      tau( 320) = (  -1.4592746  -2.2029703   4.1895815  )
       321        H      tau( 321) = (  -1.4324955  -2.1517088   4.2236413  )
       322        H      tau( 322) = (  -1.5199483  -2.2115517   4.2085457  )
       323        O      tau( 323) = (  -1.5742402  -1.4890115   3.8518118  )
       324        H      tau( 324) = (  -1.5795248  -1.5406601   3.9046353  )
       325        H      tau( 325) = (  -1.5586252  -1.5189354   3.7945409  )
       326        O      tau( 326) = (  -1.1880888  -1.5190033   3.9156564  )
       327        H      tau( 327) = (  -1.1355597  -1.5256162   3.8721007  )
       328        H      tau( 328) = (  -1.2412041  -1.4981692   3.8787078  )
       329        O      tau( 329) = (  -2.2026243  -2.3575338   4.2321131  )
       330        H      tau( 330) = (  -2.1874968  -2.4072446   4.2814187  )
       331        H      tau( 331) = (  -2.1420279  -2.3338402   4.2098871  )
       332        O      tau( 332) = (  -1.6377615  -2.0579918   4.2847417  )
       333        H      tau( 333) = (  -1.6354911  -2.1256868   4.2694346  )
       334        H      tau( 334) = (  -1.7018998  -2.0383862   4.2750454  )
       335        O      tau( 335) = (  -1.6865737  -2.0819426   3.9512914  )
       336        H      tau( 336) = (  -1.7058069  -2.1226802   4.0064193  )
       337        H      tau( 337) = (  -1.6594336  -2.0284047   3.9814158  )
       338        O      tau( 338) = (  -1.4511563  -1.7948686   4.1367580  )
       339        H      tau( 339) = (  -1.4833714  -1.7349102   4.1490204  )
       340        H      tau( 340) = (  -1.4746451  -1.8388791   4.1826349  )
       341        O      tau( 341) = (  -2.2202182  -1.9564370   4.1895481  )
       342        H      tau( 342) = (  -1.2437167  -1.9127359   4.1403984  )
       343        H      tau( 343) = (  -2.1678539  -1.9285889   4.2203127  )
       344        O      tau( 344) = (  -1.4236773  -2.1619697   3.9944129  )
       345        H      tau( 345) = (  -1.4232703  -2.1733352   4.0640798  )
       346        H      tau( 346) = (  -1.3884207  -2.2168026   3.9669269  )
       347        O      tau( 347) = (  -1.8745715  -1.7752333   4.2836786  )
       348        H      tau( 348) = (  -1.8886000  -1.7171995   4.2579348  )
       349        H      tau( 349) = (  -1.9131079  -1.8214187   4.2511217  )
       350        O      tau( 350) = (  -1.8064759  -1.3614306   3.9822452  )
       351        H      tau( 351) = (  -1.7550946  -1.3734481   4.0221606  )
       352        H      tau( 352) = (  -1.7869286  -1.3480063   3.9200537  )
       353        O      tau( 353) = (  -1.2778392  -2.2964991   3.9401868  )
       354        H      tau( 354) = (  -2.2608352  -2.3415911   3.9854291  )
       355        H      tau( 355) = (  -1.0410018  -1.2837133   3.8895564  )
       356        O      tau( 356) = (  -1.6980421  -1.7625310   3.9889914  )
       357        H      tau( 357) = (  -1.6784202  -1.8205173   4.0183088  )
       358        H      tau( 358) = (  -1.7446539  -1.7737211   3.9426192  )
       359        O      tau( 359) = (  -1.3473561  -1.9957112   3.9620008  )
       360        H      tau( 360) = (  -1.3746852  -2.0609992   3.9582826  )
       361        H      tau( 361) = (  -1.3069313  -1.9841175   4.0168894  )
       362        O      tau( 362) = (  -1.2412784  -1.1829933   3.6793590  )
       363        H      tau( 363) = (  -1.2854776  -1.1747504   3.6279716  )
       364        H      tau( 364) = (  -1.5400889  -2.2026399   3.7341251  )
       365        O      tau( 365) = (  -1.3479032  -2.0581371   4.2746390  )
       366        H      tau( 366) = (  -1.3110689  -2.0122170   4.2359092  )
       367        H      tau( 367) = (  -2.2973617  -2.0883305   4.3083481  )
       368        O      tau( 368) = (  -1.1120389  -1.7856582   3.9140422  )
       369        H      tau( 369) = (  -1.0888474  -1.7332313   3.8810512  )
       370        H      tau( 370) = (  -1.1753735  -1.7872677   3.8988965  )
       371        O      tau( 371) = (  -1.7264541  -1.5893589   4.3629027  )
       372        H      tau( 372) = (  -1.7777142  -1.6235634   4.3392518  )
       373        H      tau( 373) = (  -1.6792371  -1.6387991   4.3512860  )
       374        O      tau( 374) = (  -2.1219332  -2.5069607   4.3475677  )
       375        H      tau( 375) = (  -1.8763418  -1.5072874   4.3000377  )
       376        H      tau( 376) = (  -2.0575659  -2.5212890   4.3646338  )
       377        O      tau( 377) = (  -1.3829486  -2.3773571   4.2097201  )
       378        H      tau( 378) = (  -1.4192168  -2.3225283   4.2172791  )
       379        H      tau( 379) = (  -2.3211691  -2.3536825   4.2172791  )
       380        O      tau( 380) = (  -1.4332487  -1.3138414   3.8372951  )
       381        H      tau( 381) = (  -1.3792459  -1.2803157   3.8635287  )
       382        H      tau( 382) = (  -1.4406334  -1.2878522   3.7739180  )
       383        O      tau( 383) = (  -1.2887361  -1.8498843   4.0716054  )
       384        H      tau( 384) = (  -1.3527966  -1.8291366   4.0888829  )
       385        H      tau( 385) = (  -1.2568662  -1.7944037   4.0605620  )
       386        O      tau( 386) = (  -1.5620697  -2.3036126   3.9595183  )
       387        H      tau( 387) = (  -1.5269378  -2.3484694   4.0046158  )
       388        H      tau( 388) = (  -1.5360165  -2.2417958   3.9630807  )
       389        O      tau( 389) = (  -1.5083142  -1.9189217   3.9291712  )
       390        H      tau( 390) = (  -1.4464111  -1.9478243   3.9301509  )
       391        H      tau( 391) = (  -1.5272664  -1.9334895   3.8638014  )
       392        O      tau( 392) = (  -1.5519597  -1.9296558   3.7492095  )
       393        H      tau( 393) = (  -1.5022050  -1.9492217   3.7090659  )
       394        H      tau( 394) = (  -1.5668787  -1.8669677   3.7338969  )
       395        O      tau( 395) = (  -1.8833145  -1.7071875   3.6846135  )
       396        H      tau( 396) = (  -1.9487415  -1.6897105   3.6840123  )
       397        H      tau( 397) = (  -1.8822616  -1.7510866   3.7402201  )
       398        O      tau( 398) = (  -1.8760433  -2.0723215   3.9245624  )
       399        H      tau( 399) = (  -1.8131907  -2.0752863   3.9015906  )
       400        H      tau( 400) = (  -1.8727161  -2.0411052   3.9860747  )
       401        O      tau( 401) = (  -2.1223727  -2.0944298   4.0951950  )
       402        H      tau( 402) = (  -2.1698948  -2.0491436   4.1206828  )
       403        H      tau( 403) = (  -2.1288451  -2.1021825   4.0267305  )
       404        O      tau( 404) = (  -1.6622180  -2.4461651   4.2449599  )
       405        H      tau( 405) = (  -1.6120515  -2.4858418   4.2726909  )
       406        H      tau( 406) = (  -1.6468024  -2.4618638   4.1786216  )
       407        O      tau( 407) = (  -1.8593585  -1.7850694   3.8504982  )
       408        H      tau( 408) = (  -1.8874722  -1.7354438   3.8889942  )
       409        H      tau( 409) = (  -1.8984532  -1.8383055   3.8616696  )
       410        O      tau( 410) = (  -2.3022074  -2.5666128   4.4030574  )
       411        H      tau( 411) = (  -2.0315304  -1.5614230   4.3504789  )
       412        H      tau( 412) = (  -2.2431386  -2.5396936   4.4100542  )
       413        O      tau( 413) = (  -1.7057926  -1.3546581   3.8248657  )
       414        H      tau( 414) = (  -1.6676717  -1.4085378   3.8405012  )
       415        H      tau( 415) = (  -1.6802061  -1.2972953   3.8502310  )
       416        O      tau( 416) = (  -1.2909703  -1.6674141   3.9982369  )
       417        H      tau( 417) = (  -1.3546800  -1.6802562   3.9740517  )
       418        H      tau( 418) = (  -1.2618521  -1.6176073   3.9646002  )
       419        O      tau( 419) = (  -1.9494639  -1.9477181   3.8162269  )
       420        H      tau( 420) = (  -2.0157606  -1.9546226   3.8146962  )
       421        H      tau( 421) = (  -1.9249860  -1.9911157   3.8647310  )
       422        O      tau( 422) = (  -1.8498826  -2.0195553   4.2574338  )
       423        H      tau( 423) = (  -1.8744477  -2.0827404   4.2549903  )
       424        H      tau( 424) = (  -1.8599089  -1.9900253   4.3226199  )
       425        O      tau( 425) = (  -2.0310096  -2.1988663   3.7171091  )
       426        H      tau( 426) = (  -2.0669907  -2.1413852   3.7202874  )
       427        H      tau( 427) = (  -1.8075257  -1.2015519   3.6919887  )
       428        O      tau( 428) = (  -1.8998484  -2.2463211   3.9063775  )
       429        H      tau( 429) = (  -1.8321540  -2.2442989   3.9125505  )
       430        H      tau( 430) = (  -1.9084351  -2.1815050   3.9126896  )
       431        O      tau( 431) = (  -1.9936135  -1.8129538   4.0463291  )
       432        H      tau( 432) = (  -1.9503262  -1.8639465   4.0478877  )
       433        H      tau( 433) = (  -2.0320889  -1.8174219   3.9919694  )
       434        O      tau( 434) = (  -1.7518105  -2.2266798   4.0757745  )
       435        H      tau( 435) = (  -1.7473768  -2.2868051   4.0493126  )
       436        H      tau( 436) = (  -1.8100066  -2.2206482   4.1106413  )
       437        O      tau( 437) = (  -1.5053958  -1.6064063   4.1686470  )
       438        H      tau( 438) = (  -1.4669115  -1.5600843   4.1402481  )
       439        H      tau( 439) = (  -1.5501726  -1.5937035   4.2157205  )
       440        O      tau( 440) = (  -1.9149835  -1.6366971   3.9736454  )
       441        H      tau( 441) = (  -1.9348748  -1.5818007   3.9414113  )
       442        H      tau( 442) = (  -1.9601165  -1.6597763   4.0142176  )
       443        O      tau( 443) = (  -1.6744111  -1.4291511   4.0843743  )
       444        H      tau( 444) = (  -1.7068573  -1.4926024   4.0825486  )
       445        H      tau( 445) = (  -1.6586584  -1.4217719   4.1480964  )
       446        O      tau( 446) = (  -1.4748511  -2.5303156   4.2977110  )
       447        H      tau( 447) = (  -1.4522420  -2.4794871   4.2591649  )
       448        H      tau( 448) = (  -2.4262331  -2.5312580   4.3447902  )
       449        O      tau( 449) = (  -1.8610630  -2.3996040   4.2974105  )
       450        H      tau( 450) = (  -1.8813454  -2.4324255   4.3528111  )
       451        H      tau( 451) = (  -1.7970920  -2.4168429   4.2823928  )
       452        O      tau( 452) = (  -1.7628197  -1.5901583   4.0941931  )
       453        H      tau( 453) = (  -1.8130060  -1.5996307   4.0498470  )
       454        H      tau( 454) = (  -1.7318030  -1.6502396   4.0897290  )
       455        O      tau( 455) = (  -1.2545947  -1.9000643   3.8224611  )
       456        H      tau( 456) = (  -1.1951177  -1.9303923   3.8125532  )
       457        H      tau( 457) = (  -1.2857234  -1.9384767   3.8701469  )
       458        O      tau( 458) = (  -2.1346268  -2.1948221   3.9191798  )
       459        H      tau( 459) = (  -2.1100838  -2.2451390   3.8893783  )
       460        H      tau( 460) = (  -2.1999072  -2.2193318   3.9187624  )
       461        O      tau( 461) = (  -1.9028519  -1.5924012   4.2286397  )
       462        H      tau( 462) = (  -1.9549237  -1.5844550   4.1865758  )
       463        H      tau( 463) = (  -1.8482296  -1.5763145   4.1956598  )
       464        O      tau( 464) = (  -1.0537488  -1.3465080   3.7734393  )
       465        H      tau( 465) = (  -1.0209328  -1.3085616   3.7217013  )
       466        H      tau( 466) = (  -1.1143915  -1.3614322   3.7487587  )
       467        O      tau( 467) = (  -2.1170107  -2.0241727   3.8168392  )
       468        H      tau( 468) = (  -1.1543254  -2.0440580   3.7644666  )
       469        H      tau( 469) = (  -2.1251298  -2.0757296   3.8614692  )
       470        O      tau( 470) = (  -1.5094917  -1.3618444   4.0204295  )
       471        H      tau( 471) = (  -1.5697294  -1.3764820   4.0468858  )
       472        H      tau( 472) = (  -1.5191254  -1.3801712   3.9560895  )
       473        O      tau( 473) = (  -1.8791648  -1.9167636   4.4038311  )
       474        H      tau( 474) = (  -1.8854284  -1.8587597   4.3724432  )
       475        H      tau( 475) = (  -1.9077891  -1.9136234   4.4634120  )
       476        O      tau( 476) = (  -1.9657650  -1.3970437   4.0567491  )
       477        H      tau( 477) = (  -1.8985454  -1.3975945   4.0307715  )
       478        H      tau( 478) = (  -2.2199013  -2.4191607   4.1163857  )
       479        O      tau( 479) = (  -1.3387749  -1.4748113   3.8288567  )
       480        H      tau( 480) = (  -1.3749376  -1.5308168   3.8304041  )
       481        H      tau( 481) = (  -1.3856648  -1.4231624   3.8299143  )
       482        O      tau( 482) = (  -2.0898136  -1.8123147   4.2245597  )
       483        H      tau( 483) = (  -2.1360705  -1.7625100   4.2228453  )
       484        H      tau( 484) = (  -2.0618806  -1.8140859   4.1620287  )
       485        O      tau( 485) = (  -1.8865856  -2.2068004   4.1949752  )
       486        H      tau( 486) = (  -1.9410084  -2.2387110   4.1681015  )
       487        H      tau( 487) = (  -1.8655263  -2.2524675   4.2396163  )
       488        O      tau( 488) = (  -1.6256169  -2.1418738   3.7926038  )
       489        H      tau( 489) = (  -1.6384347  -2.1034259   3.8453049  )
       490        H      tau( 490) = (  -1.6360228  -2.1062378   3.7370028  )
       491        O      tau( 491) = (  -1.1940926  -1.4032055   4.0624823  )
       492        H      tau( 492) = (  -1.1648656  -1.4314334   4.0094529  )
       493        H      tau( 493) = (  -1.4051529  -2.4199273   4.0988743  )

     number of k points=     1
                       cart. coord. in units 2pi/alat
        k(    1) = (   0.0000000   0.0000000   0.0000000), wk =   2.0000000

     Dense  grid:  3184389 G-vectors     FFT dimensions: ( 192, 200, 480)

     Estimated max dynamical RAM per process >     493.86 MB

     Estimated total dynamical RAM >      57.87 GB

     WARNING: libxc functional with ID  263 depends
      on external parameters: check the user_guide of
      QE if you need to modify them or to check their
      default values.

     Initial potential from superposition of free atoms

     starting charge    2103.6163, renormalised to    2104.0000
     Starting wfcs are 1530 randomized atomic wfcs

     total cpu time spent up to now is       34.1 secs

     Self-consistent Calculation

     iteration #  1     ecut=   110.00 Ry     beta= 0.50
     Davidson diagonalization with overlap
     ethr =  1.00E-02,  avg # of iterations =  2.0

     total cpu time spent up to now is      110.2 secs

     total energy              =  -11162.54211106 Ry
     estimated scf accuracy    <    4098.94756380 Ry

     iteration #  2     ecut=   110.00 Ry     beta= 0.50
     Davidson diagonalization with overlap
     ethr =  1.00E-02,  avg # of iterations =  2.0

     total cpu time spent up to now is      175.6 secs

     total energy              =  -11182.17895894 Ry
     estimated scf accuracy    <     542.66968217 Ry

     iteration #  3     ecut=   110.00 Ry     beta= 0.50
     Davidson diagonalization with overlap
     ethr =  1.00E-02,  avg # of iterations =  1.0

     total cpu time spent up to now is      228.8 secs

     total energy              =  -11183.78338230 Ry
     estimated scf accuracy    <      50.06400327 Ry

     iteration #  4     ecut=   110.00 Ry     beta= 0.50
     Davidson diagonalization with overlap
     ethr =  2.38E-03,  avg # of iterations =  1.0

     total cpu time spent up to now is      282.2 secs

     total energy              =  -11183.92351336 Ry
     estimated scf accuracy    <       0.83082592 Ry

     iteration #  5     ecut=   110.00 Ry     beta= 0.50
     Davidson diagonalization with overlap
     ethr =  3.95E-05,  avg # of iterations =  2.0

     total cpu time spent up to now is      337.8 secs

     total energy              =  -11183.96004288 Ry
     estimated scf accuracy    <       0.03471180 Ry

     iteration #  6     ecut=   110.00 Ry     beta= 0.50
     Davidson diagonalization with overlap
     ethr =  1.65E-06,  avg # of iterations =  4.0

     total cpu time spent up to now is      409.3 secs

     total energy              =  -11183.96646802 Ry
     estimated scf accuracy    <       0.00554137 Ry

     iteration #  7     ecut=   110.00 Ry     beta= 0.50
     Davidson diagonalization with overlap
     ethr =  2.63E-07,  avg # of iterations =  2.0

     total cpu time spent up to now is      474.5 secs

     total energy              =  -11183.96708996 Ry
     estimated scf accuracy    <       0.00214267 Ry

     iteration #  8     ecut=   110.00 Ry     beta= 0.50
     Davidson diagonalization with overlap
     ethr =  1.02E-07,  avg # of iterations =  2.0

     total cpu time spent up to now is      538.5 secs

     total energy              =  -11183.96728018 Ry
     estimated scf accuracy    <       0.00056099 Ry

     iteration #  9     ecut=   110.00 Ry     beta= 0.50
     Davidson diagonalization with overlap
     ethr =  2.67E-08,  avg # of iterations =  2.0

     total cpu time spent up to now is      599.3 secs

     total energy              =  -11183.96732095 Ry
     estimated scf accuracy    <       0.00009562 Ry

     iteration # 10     ecut=   110.00 Ry     beta= 0.50
     Davidson diagonalization with overlap
     ethr =  4.54E-09,  avg # of iterations =  2.0

     total cpu time spent up to now is      655.8 secs

     total energy              =  -11183.96732665 Ry
     estimated scf accuracy    <       0.00000663 Ry

     iteration # 11     ecut=   110.00 Ry     beta= 0.50
     Davidson diagonalization with overlap
     ethr =  3.15E-10,  avg # of iterations =  4.0

     total cpu time spent up to now is      739.5 secs

     total energy              =  -11183.96732874 Ry
     estimated scf accuracy    <       0.00000359 Ry

     iteration # 12     ecut=   110.00 Ry     beta= 0.50
     Davidson diagonalization with overlap
     ethr =  1.71E-10,  avg # of iterations =  1.0

     total cpu time spent up to now is      792.7 secs

     End of self-consistent calculation

          k = 0.0000 0.0000 0.0000 (398025 PWs)   bands (ev):

  -104.2239-104.0798-103.8543-103.8429-103.7876-103.5922-103.5741-103.5630
  -103.5236-103.4877-103.4631-103.4311-103.3555-103.3139-103.3068-102.9669
   -63.7669 -63.7108 -63.6768 -63.6391 -63.5774 -63.5730 -63.4156 -63.4136
   -63.3974 -63.3861 -63.3827 -63.3674 -63.3614 -63.3301 -63.2814 -63.1757
   -63.1739 -63.1643 -63.1561 -63.1486 -63.1242 -63.1150 -63.1126 -63.1061
   -63.0812 -63.0735 -63.0732 -63.0565 -63.0460 -63.0342 -63.0231 -63.0077
   -63.0026 -62.9849 -62.9645 -62.9526 -62.9511 -62.9326 -62.9257 -62.9099
   -62.9021 -62.8814 -62.8552 -62.8551 -62.8542 -62.6032 -62.5600 -62.5109
   -29.2140 -29.1664 -29.0574 -29.0269 -28.9844 -28.8864 -28.8733 -28.8486
   -28.8442 -28.8356 -28.7824 -28.7759 -28.7608 -28.6845 -28.6491 -28.6393
   -21.4528 -21.3733 -21.2941 -21.2788 -21.2704 -21.2107 -21.1601 -21.0835
   -21.0062 -20.9857 -20.9493 -20.9412 -20.8916 -20.8815 -20.8531 -20.8284
   -20.8213 -20.8171 -20.7131 -20.7118 -20.6985 -20.6905 -20.6816 -20.6451
   -20.6337 -20.6136 -20.5956 -20.5850 -20.5766 -20.5716 -20.5573 -20.5317
   -20.5292 -20.4960 -20.4855 -20.4833 -20.4758 -20.4685 -20.4644 -20.4574
   -20.4370 -20.4059 -20.3954 -20.3683 -20.3572 -20.3084 -20.2977 -20.2862
   -20.2699 -20.2621 -20.2532 -20.2187 -20.2034 -20.1919 -20.1891 -20.1719
   -20.1587 -20.1368 -20.1246 -20.1098 -20.0932 -20.0799 -20.0736 -20.0664
   -20.0612 -20.0490 -20.0410 -20.0343 -20.0171 -19.9889 -19.9781 -19.9738
   -19.9711 -19.9656 -19.9584 -19.9206 -19.9175 -19.8974 -19.8905 -19.8748
   -19.8717 -19.8637 -19.8382 -19.8323 -19.8022 -19.7934 -19.7692 -19.7669
   -19.7532 -19.7242 -19.7018 -19.7011 -19.6992 -19.6928 -19.6846 -19.6726
   -19.6716 -19.6680 -19.6580 -19.6387 -19.6313 -19.6232 -19.6122 -19.6074
   -19.5944 -19.5743 -19.5727 -19.5656 -19.5437 -19.5324 -19.5148 -19.5088
   -19.4949 -19.4934 -19.4861 -19.4769 -19.4746 -19.4636 -19.4559 -19.4537
   -19.4479 -19.4415 -19.4345 -19.4290 -19.4281 -19.4174 -19.4105 -19.3782
   -19.3770 -19.3632 -19.3564 -19.3396 -19.3300 -19.3262 -19.3247 -19.3121
   -19.3034 -19.2964 -19.2761 -19.2689 -19.2626 -19.2506 -19.2388 -19.2360
   -19.2112 -19.2049 -19.1980 -19.1856 -19.1735 -19.1642 -19.1598 -19.1553
   -19.1447 -19.1331 -19.1251 -19.1144 -19.1118 -19.0930 -19.0718 -19.0648
   -19.0516 -19.0291 -19.0229 -19.0164 -19.0050 -18.9893 -18.9856 -18.9755
   -18.9681 -18.9614 -18.9547 -18.9351 -18.9272 -18.9261 -18.9242 -18.9199
   -18.8937 -18.8903 -18.8856 -18.8813 -18.8777 -18.8655 -18.8614 -18.8478
   -18.8203 -18.8049 -18.8003 -18.7814 -18.7685 -18.7591 -18.7496 -18.7408
   -18.7258 -18.7071 -18.7035 -18.6745 -18.6694 -18.6526 -18.6444 -18.6111
   -18.5920 -18.5652 -18.5568 -18.5523 -18.5462 -18.5447 -18.5347 -18.5329
   -18.5306 -18.5214 -18.5104 -18.4976 -18.4815 -18.4796 -18.4640 -18.4296
   -18.4247 -18.4225 -18.4128 -18.4091 -18.3860 -18.3708 -18.3471 -18.3231
   -18.3083 -18.2920 -18.2180 -18.1703 -18.1272 -17.9347 -17.8358 -11.8029
   -11.7629 -11.7454 -11.7251 -11.7137 -11.6623 -11.6320 -11.6031 -11.5998
   -11.5854 -11.5782 -11.5513 -11.5325 -11.5089 -11.4971 -11.4802 -11.4757
   -11.4673 -11.4422 -11.4356 -11.4321 -11.4182 -11.4050 -11.3968 -11.3910
   -11.3789 -11.3716 -11.3713 -11.3711 -11.3703 -11.3603 -11.3542 -11.3507
   -11.3465 -11.3396 -11.2829 -11.2793 -11.2791 -11.2773 -11.2658 -11.2546
   -11.2303 -11.2089 -11.1965 -11.1787 -11.1767 -11.1700 -11.1654  -9.7270
    -9.6027  -9.5813  -9.4792  -9.2394  -9.1301  -9.1144  -9.0500  -9.0460
    -8.9851  -8.9632  -8.8777  -8.8373  -8.7824  -8.7654  -8.7298  -8.5384
    -8.4732  -8.4103  -8.3696  -8.3549  -8.3327  -8.2893  -8.2381  -8.2233
    -8.2125  -8.1861  -8.1637  -8.1194  -8.0483  -8.0319  -7.8533  -7.8401
    -7.8146  -7.8069  -7.6746  -7.6099  -7.5721  -7.5528  -7.5292  -7.4937
    -7.4743  -7.4478  -7.3874  -7.3684  -7.3569  -7.3347  -7.3221  -7.3059
    -7.2710  -7.2603  -7.2360  -7.2270  -7.2034  -7.1988  -7.1604  -7.1414
    -7.1275  -7.1233  -7.1146  -7.1027  -7.0704  -7.0574  -7.0467  -7.0340
    -7.0059  -7.0022  -6.9917  -6.9405  -6.9148  -6.9090  -6.8948  -6.8638
    -6.8486  -6.8252  -6.8075  -6.7997  -6.7903  -6.7756  -6.7665  -6.7272
    -6.7154  -6.7139  -6.7038  -6.6780  -6.6691  -6.6602  -6.6486  -6.6303
    -6.6269  -6.6085  -6.5887  -6.5744  -6.5435  -6.5402  -6.5196  -6.4969
    -6.4890  -6.4845  -6.4810  -6.4586  -6.4478  -6.4407  -6.4275  -6.4184
    -6.3896  -6.3863  -6.3749  -6.3683  -6.3594  -6.3416  -6.3361  -6.3321
    -6.3159  -6.3034  -6.2938  -6.2885  -6.2849  -6.2815  -6.2589  -6.2514
    -6.2297  -6.2263  -6.2040  -6.2016  -6.2007  -6.1844  -6.1667  -6.1564
    -6.1474  -6.1326  -6.1136  -6.1078  -6.0957  -6.0845  -6.0694  -6.0675
    -6.0538  -6.0346  -6.0248  -6.0139  -6.0075  -5.9925  -5.9862  -5.9812
    -5.9690  -5.9605  -5.9520  -5.9403  -5.9261  -5.9026  -5.8996  -5.8896
    -5.8834  -5.8600  -5.8440  -5.8211  -5.8208  -5.8096  -5.8030  -5.7987
    -5.7712  -5.7652  -5.7473  -5.7384  -5.7261  -5.7165  -5.6810  -5.6753
    -5.6660  -5.6369  -5.6131  -5.5952  -5.5900  -5.5678  -5.5488  -5.5133
    -5.5011  -5.4775  -5.3893  -5.3757  -5.3664  -5.3593  -5.3453  -5.2993
    -5.2657  -5.2539  -5.2337  -5.2108  -5.1864  -5.1808  -5.1641  -5.1335
    -5.1049  -5.0918  -5.0882  -5.0491  -5.0394  -5.0037  -4.9876  -4.9702
    -4.9574  -4.9368  -4.9175  -4.9095  -4.8924  -4.8801  -4.8717  -4.8521
    -4.8089  -4.8026  -4.7861  -4.7711  -4.7468  -4.7394  -4.7312  -4.7273
    -4.7029  -4.6824  -4.6665  -4.6401  -4.6269  -4.6113  -4.5998  -4.5685
    -4.5501  -4.5249  -4.5016  -4.4963  -4.4701  -4.4258  -4.4215  -4.3962
    -4.3516  -4.3378  -4.3262  -4.2965  -4.2472  -4.2407  -4.2083  -4.1786
    -4.1698  -4.1531  -4.1237  -4.1064  -4.0989  -4.0721  -4.0604  -4.0471
    -4.0224  -4.0001  -3.9876  -3.9830  -3.9790  -3.9689  -3.9347  -3.9343
    -3.9246  -3.9092  -3.9075  -3.8896  -3.8821  -3.8745  -3.8692  -3.8575
    -3.8487  -3.8380  -3.8097  -3.8031  -3.7870  -3.7821  -3.7723  -3.7643
    -3.7391  -3.7308  -3.7209  -3.7039  -3.6875  -3.6749  -3.6653  -3.6600
    -3.6449  -3.6188  -3.6110  -3.5948  -3.5797  -3.5688  -3.5388  -3.5293
    -3.5180  -3.5105  -3.4964  -3.4899  -3.4659  -3.4558  -3.4475  -3.4333
    -3.4307  -3.4190  -3.4173  -3.4069  -3.3991  -3.3893  -3.3867  -3.3741
    -3.3717  -3.3595  -3.3366  -3.3318  -3.3183  -3.3057  -3.2973  -3.2837
    -3.2762  -3.2663  -3.2605  -3.2493  -3.2429  -3.2353  -3.2262  -3.2232
    -3.2072  -3.1848  -3.1835  -3.1735  -3.1662  -3.1556  -3.1535  -3.1449
    -3.1341  -3.1252  -3.1211  -3.1100  -3.1086  -3.0929  -3.0846  -3.0806
    -3.0745  -3.0671  -3.0512  -3.0493  -3.0334  -3.0296  -3.0223  -3.0050
    -2.9962  -2.9848  -2.9777  -2.9761  -2.9675  -2.9597  -2.9552  -2.9374
    -2.9292  -2.9219  -2.9174  -2.9072  -2.9047  -2.8955  -2.8807  -2.8735
    -2.8672  -2.8568  -2.8476  -2.8473  -2.8362  -2.8293  -2.8260  -2.8002
    -2.7974  -2.7937  -2.7900  -2.7768  -2.7672  -2.7568  -2.7549  -2.7499
    -2.7323  -2.7311  -2.7224  -2.7142  -2.7062  -2.6966  -2.6904  -2.6810
    -2.6691  -2.6563  -2.6421  -2.6293  -2.6194  -2.6145  -2.6065  -2.5983
    -2.5882  -2.5823  -2.5774  -2.5735  -2.5671  -2.5549  -2.5489  -2.5398
    -2.5369  -2.5196  -2.5135  -2.5000  -2.4902  -2.4680  -2.4659  -2.4521
    -2.4485  -2.4452  -2.4266  -2.4247  -2.4158  -2.3970  -2.3831  -2.3787
    -2.3684  -2.3615  -2.3541  -2.3369  -2.3322  -2.3265  -2.3115  -2.3036
    -2.2995  -2.2907  -2.2892  -2.2808  -2.2756  -2.2580  -2.2555  -2.2455
    -2.2349  -2.2336  -2.2117  -2.2035  -2.2008  -2.1934  -2.1826  -2.1750
    -2.1682  -2.1566  -2.1459  -2.1419  -2.1304  -2.1274  -2.1163  -2.1062
    -2.0965  -2.0929  -2.0727  -2.0652  -2.0594  -2.0466  -2.0382  -2.0261
    -2.0172  -2.0170  -2.0025  -1.9949  -1.9846  -1.9796  -1.9754  -1.9646
    -1.9589  -1.9550  -1.9495  -1.9375  -1.9301  -1.9234  -1.9099  -1.9065
    -1.8978  -1.8957  -1.8915  -1.8825  -1.8687  -1.8662  -1.8542  -1.8447
    -1.8434  -1.8371  -1.8227  -1.8119  -1.8036  -1.7905  -1.7760  -1.7695
    -1.7581  -1.7519  -1.7450  -1.7432  -1.7348  -1.7312  -1.7168  -1.7157
    -1.7037  -1.6976  -1.6921  -1.6872  -1.6835  -1.6739  -1.6624  -1.6605
    -1.6515  -1.6427  -1.6328  -1.6234  -1.6120  -1.6030  -1.6021  -1.5972
    -1.5949  -1.5867  -1.5764  -1.5750  -1.5661  -1.5536  -1.5474  -1.5427
    -1.5313  -1.5285  -1.5257  -1.5129  -1.5072  -1.5000  -1.4957  -1.4847
    -1.4761  -1.4713  -1.4637  -1.4565  -1.4501  -1.4411  -1.4363  -1.4213
    -1.4134  -1.4084  -1.4011  -1.3975  -1.3921  -1.3890  -1.3779  -1.3720
    -1.3656  -1.3552  -1.3520  -1.3442  -1.3363  -1.3216  -1.3180  -1.3109
    -1.3043  -1.2948  -1.2896  -1.2847  -1.2784  -1.2703  -1.2688  -1.2543
    -1.2434  -1.2340  -1.2321  -1.2298  -1.2227  -1.2179  -1.2075  -1.2049
    -1.1947  -1.1848  -1.1782  -1.1757  -1.1691  -1.1630  -1.1573  -1.1451
    -1.1346  -1.1278  -1.1232  -1.1218  -1.1128  -1.0969  -1.0942  -1.0820
    -1.0731  -1.0691  -1.0548  -1.0391  -1.0353  -1.0289  -1.0228  -1.0117
    -1.0043  -0.9935  -0.9739  -0.9707  -0.9515  -0.9497  -0.9479  -0.9423
    -0.9265  -0.9253  -0.9209  -0.9077  -0.9012  -0.8853  -0.8770  -0.8758
    -0.8715  -0.8648  -0.8511  -0.8414  -0.8291  -0.8221  -0.8193  -0.8029
    -0.7905  -0.7858  -0.7830  -0.7745  -0.7704  -0.7633  -0.7571  -0.7526
    -0.7494  -0.7349  -0.7312  -0.7280  -0.7265  -0.7193  -0.7177  -0.7091
    -0.6997  -0.6922  -0.6762  -0.6682  -0.6634  -0.6566  -0.6520  -0.6403
    -0.6347  -0.6261  -0.6214  -0.6148  -0.6066  -0.5941  -0.5890  -0.5681
    -0.5660  -0.5483  -0.5381  -0.5360  -0.5242  -0.5160  -0.5048  -0.5030
    -0.4780  -0.4687  -0.4537  -0.4510  -0.4330  -0.4232  -0.4146  -0.3950
    -0.3793  -0.3759  -0.3654  -0.3447  -0.3151  -0.3010  -0.2935  -0.2611
    -0.2430  -0.2396  -0.2238  -0.2208  -0.2079  -0.1948  -0.1826  -0.1562
    -0.1331  -0.1251  -0.0964  -0.0685  -0.0576  -0.0454  -0.0406   0.0753
     0.1036   0.1818   0.2973   0.3475

     highest occupied level (ev):     0.3475

!    total energy              =  -11183.96732884 Ry
     estimated scf accuracy    <       0.00000044 Ry

     The total energy is the sum of the following terms:
     one-electron contribution =  -19941.94595773 Ry
     hartree contribution      =   10616.54661098 Ry
     xc contribution           =   -2314.74246762 Ry
     ewald contribution        =     456.17448554 Ry

     convergence has been achieved in  12 iterations

     Forces acting on atoms (cartesian axes, Ry/au):

     atom    1 type  1   force =    -0.00946668    0.01199054    0.00955582
     atom    2 type  2   force =    -0.03729618   -0.02193858   -0.02976365
     atom    3 type  3   force =    -0.03353023    0.00514315   -0.02266511
     atom    4 type  3   force =    -0.02537765    0.00592735    0.04147256
     atom    5 type  3   force =    -0.01166822    0.05869644    0.05010473
     atom    6 type  3   force =    -0.01452750   -0.02501504    0.00868969
     atom    7 type  3   force =    -0.03525112    0.00528193   -0.02207630
     atom    8 type  3   force =    -0.05752195    0.04278409   -0.07443549
     atom    9 type  4   force =    -0.01250979   -0.00465616   -0.00550178
     atom   10 type  4   force =     0.01391484   -0.00493436   -0.03563598
     atom   11 type  4   force =     0.01757705    0.00837038   -0.03750757
     atom   12 type  4   force =     0.02385636    0.00749445   -0.04353728
     atom   13 type  4   force =    -0.04540181    0.04850863   -0.03658751
     atom   14 type  4   force =     0.06621023    0.00840154   -0.04395815
     atom   15 type  4   force =     0.00422235   -0.03345828    0.06838391
     atom   16 type  4   force =     0.02074610    0.02193780    0.05856239
     atom   17 type  4   force =     0.01407296    0.00532379   -0.02731772
     atom   18 type  4   force =     0.00946496    0.00387986    0.01306288
     atom   19 type  4   force =     0.05480624   -0.01090655    0.01477949
     atom   20 type  4   force =     0.02118282   -0.04300421    0.03910754
     atom   21 type  4   force =     0.02963572   -0.02899257    0.04070711
     atom   22 type  4   force =     0.01454383   -0.01193302    0.02114909
     atom   23 type  2   force =     0.03347451    0.04723461    0.01403426
     atom   24 type  3   force =    -0.07244775   -0.05327612   -0.03827611
     atom   25 type  3   force =    -0.02619535   -0.04396672    0.01101262
     atom   26 type  4   force =    -0.02863890   -0.01895943   -0.02191864
     atom   27 type  4   force =    -0.05998496   -0.03482288    0.01557401
     atom   28 type  4   force =     0.02136015    0.01715794    0.07694238
     atom   29 type  4   force =     0.01114514   -0.04086042    0.01041246
     atom   30 type  4   force =     0.04880434    0.04517118   -0.03606269
     atom   31 type  4   force =    -0.01005884   -0.06382535   -0.06299795
     atom   32 type  4   force =    -0.00221249    0.00288661    0.00155723
     atom   33 type  4   force =     0.03014776    0.01304764    0.01710605
     atom   34 type  4   force =    -0.00905704    0.02051593    0.04915372
     atom   35 type  4   force =    -0.03631263   -0.03355360    0.00315517
     atom   36 type  2   force =    -0.03855613   -0.06415498   -0.00048778
     atom   37 type  3   force =     0.03246181   -0.05807613   -0.05482703
     atom   38 type  3   force =     0.01320414    0.10038098    0.08039370
     atom   39 type  4   force =     0.01489673   -0.01120494   -0.02041145
     atom   40 type  4   force =    -0.04090543    0.03408172    0.00144728
     atom   41 type  4   force =     0.05549384    0.03629213   -0.04062645
     atom   42 type  4   force =    -0.04889218   -0.07389194    0.01691745
     atom   43 type  4   force =    -0.00911128    0.01223226   -0.05357611
     atom   44 type  4   force =    -0.03574317    0.02298012    0.09406888
     atom   45 type  4   force =    -0.05554774    0.02162274   -0.02451733
     atom   46 type  4   force =    -0.03750663   -0.01047574   -0.00147295
     atom   47 type  1   force =     0.01342265    0.00609979   -0.00803029
     atom   48 type  1   force =    -0.01140318    0.01225434    0.00863206
     atom   49 type  1   force =     0.01080998   -0.00589516    0.01543539
     atom   50 type  2   force =    -0.02501611   -0.03250961    0.00357318
     atom   51 type  3   force =     0.02163957   -0.04480779    0.03824733
     atom   52 type  3   force =     0.04858948   -0.00887469   -0.03187919
     atom   53 type  3   force =     0.00697982   -0.03875469   -0.02950350
     atom   54 type  3   force =    -0.01474964   -0.03518052    0.03238434
     atom   55 type  3   force =     0.08412242    0.03395893   -0.01598988
     atom   56 type  3   force =     0.00144615    0.00568044    0.00923474
     atom   57 type  4   force =    -0.01186361    0.01113732    0.01403767
     atom   58 type  4   force =    -0.00355719    0.03265231    0.02920753
     atom   59 type  4   force =     0.01323944   -0.02589657    0.00578542
     atom   60 type  4   force =     0.00758659    0.02036372   -0.02495756
     atom   61 type  4   force =    -0.01151334   -0.02010428   -0.01533984
     atom   62 type  4   force =    -0.00614295    0.00625086   -0.02422233
     atom   63 type  4   force =    -0.04883527   -0.05701876    0.02014668
     atom   64 type  4   force =    -0.02924703   -0.03446229   -0.00478121
     atom   65 type  4   force =    -0.02003579   -0.00027449    0.02272263
     atom   66 type  4   force =    -0.00332302    0.02326123    0.00224418
     atom   67 type  4   force =     0.01358675    0.04306560   -0.02059712
     atom   68 type  4   force =    -0.00243196    0.06825583    0.00326567
     atom   69 type  4   force =     0.05774801   -0.00623769   -0.06570233
     atom   70 type  4   force =     0.01360477    0.02158649    0.01321120
     atom   71 type  4   force =     0.00033274    0.01200521   -0.06685035
     atom   72 type  4   force =    -0.00105475   -0.02507832    0.01066623
     atom   73 type  1   force =     0.00271005   -0.02155235    0.00737243
     atom   74 type  2   force =     0.02536844    0.00922971    0.00342140
     atom   75 type  2   force =     0.00024260   -0.00072838    0.01797596
     atom   76 type  3   force =    -0.03392901    0.05310485    0.03989234
     atom   77 type  3   force =    -0.00911738    0.00674880   -0.00256552
     atom   78 type  3   force =    -0.03341753    0.06591893    0.04562234
     atom   79 type  3   force =     0.01915943   -0.04487732   -0.01802171
     atom   80 type  3   force =     0.02050177    0.00177697    0.02049980
     atom   81 type  3   force =     0.03921562    0.01924723    0.00395692
     atom   82 type  4   force =    -0.01942636    0.01139484   -0.00761064
     atom   83 type  4   force =     0.06496599   -0.02542543    0.00554924
     atom   84 type  4   force =    -0.00931295   -0.00954449   -0.04705843
     atom   85 type  4   force =     0.01367825    0.01218833   -0.02249833
     atom   86 type  4   force =     0.00549556    0.00061927   -0.02866674
     atom   87 type  4   force =    -0.01222755    0.00504894   -0.00424485
     atom   88 type  4   force =    -0.03546599   -0.03900596    0.02486179
     atom   89 type  4   force =     0.00267502   -0.00757146    0.01130465
     atom   90 type  4   force =    -0.00989766    0.01655804   -0.00930748
     atom   91 type  4   force =    -0.01261752   -0.02369822   -0.01037905
     atom   92 type  4   force =     0.00644969   -0.02588209   -0.00357468
     atom   93 type  4   force =    -0.00667829   -0.00861977    0.00778425
     atom   94 type  4   force =    -0.03567866    0.00537628   -0.01028012
     atom   95 type  4   force =     0.06063589   -0.00858419    0.02832401
     atom   96 type  4   force =    -0.02690258   -0.00286337   -0.02755766
     atom   97 type  1   force =     0.00503078    0.01092381    0.00024534
     atom   98 type  1   force =    -0.00322031    0.01818370   -0.00556484
     atom   99 type  1   force =    -0.00108166   -0.00297839    0.00144082
     atom  100 type  2   force =     0.01064516    0.08948507    0.06962219
     atom  101 type  2   force =     0.07383100    0.03049820    0.07795048
     atom  102 type  3   force =    -0.02039436    0.03190599   -0.08729608
     atom  103 type  3   force =     0.01000640   -0.00214488   -0.03236975
     atom  104 type  3   force =     0.08482796   -0.05811942    0.00379089
     atom  105 type  3   force =     0.01109585   -0.05129253   -0.00870184
     atom  106 type  3   force =    -0.02669739   -0.03291476   -0.05351776
     atom  107 type  3   force =     0.03179773    0.00087147    0.00363373
     atom  108 type  4   force =     0.04393455    0.02462547    0.02019133
     atom  109 type  4   force =    -0.01424311   -0.00101909    0.00206205
     atom  110 type  4   force =    -0.00421869    0.01776567   -0.00456686
     atom  111 type  4   force =    -0.02557637    0.04197402    0.01711645
     atom  112 type  4   force =     0.00418359    0.01871572    0.01896928
     atom  113 type  4   force =    -0.01684098    0.00782759    0.03308073
     atom  114 type  4   force =    -0.02636707   -0.00300053   -0.00784972
     atom  115 type  4   force =    -0.01043303    0.00711688    0.00767493
     atom  116 type  4   force =    -0.04423934    0.02237187   -0.01783030
     atom  117 type  4   force =     0.00343780   -0.06233820   -0.01006788
     atom  118 type  4   force =     0.00753264   -0.01472923    0.04099788
     atom  119 type  4   force =    -0.01684139    0.08095802   -0.00410895
     atom  120 type  4   force =    -0.02276340   -0.00320778    0.01129511
     atom  121 type  4   force =     0.01608951   -0.00331729   -0.01514937
     atom  122 type  4   force =    -0.00734079    0.01187979   -0.04310898
     atom  123 type  4   force =    -0.02317292    0.02491660    0.02822196
     atom  124 type  4   force =     0.03242875   -0.02261797    0.03720802
     atom  125 type  5   force =    -0.00472433   -0.00424279   -0.00530685
     atom  126 type  5   force =     0.03942077    0.03452644   -0.00374330
     atom  127 type  5   force =     0.02447644   -0.02319567    0.00654450
     atom  128 type  5   force =     0.03583112    0.00224429   -0.02444968
     atom  129 type  5   force =     0.03917921    0.01313410   -0.03330147
     atom  130 type  5   force =    -0.01242583   -0.02086843    0.03462128
     atom  131 type  5   force =     0.00410693    0.01301272   -0.00717638
     atom  132 type  5   force =    -0.03749575    0.00238766    0.05602153
     atom  133 type  5   force =     0.05066141   -0.01645959    0.00949772
     atom  134 type  5   force =    -0.00627553    0.01853136   -0.01560454
     atom  135 type  5   force =    -0.01274466   -0.00180824   -0.01623458
     atom  136 type  5   force =     0.05140414    0.00695071   -0.00957177
     atom  137 type  5   force =     0.02373733    0.00586911   -0.01003468
     atom  138 type  5   force =    -0.02187748   -0.00302695    0.00914503
     atom  139 type  5   force =    -0.00176536    0.00466635    0.00771526
     atom  140 type  5   force =     0.01398477   -0.00849630   -0.02836148
     atom  141 type  1   force =     0.00257396   -0.00352259   -0.00086717
     atom  142 type  2   force =     0.02429402   -0.06621282   -0.00597572
     atom  143 type  3   force =    -0.06656226    0.01966320    0.02424460
     atom  144 type  3   force =     0.01791422   -0.02608522    0.01644506
     atom  145 type  3   force =     0.07493158   -0.01529440   -0.06246259
     atom  146 type  3   force =     0.01677990   -0.01339116    0.00973026
     atom  147 type  3   force =     0.08573283   -0.06221980    0.03534633
     atom  148 type  3   force =     0.03399788   -0.07251668   -0.01995538
     atom  149 type  4   force =     0.00104816   -0.00951240    0.00257211
     atom  150 type  4   force =    -0.01537588    0.03015972    0.02755947
     atom  151 type  4   force =    -0.04674000   -0.00097256    0.01711904
     atom  152 type  4   force =     0.01013005    0.01772551   -0.00171543
     atom  153 type  4   force =     0.01611258    0.02725153   -0.04342195
     atom  154 type  4   force =    -0.00345594    0.01461789   -0.02387813
     atom  155 type  4   force =     0.03031630   -0.00050706    0.00468678
     atom  156 type  4   force =     0.00132631   -0.01378443    0.01383019
     atom  157 type  4   force =    -0.01528738   -0.04463812   -0.00807491
     atom  158 type  4   force =    -0.00914405    0.06288230   -0.02605002
     atom  159 type  4   force =    -0.08026017    0.01119767   -0.01246624
     atom  160 type  4   force =    -0.03305238    0.10712269   -0.02114820
     atom  161 type  4   force =     0.00818949    0.00360829   -0.00450092
     atom  162 type  4   force =    -0.03913231    0.00164379   -0.03475955
     atom  163 type  2   force =     0.01033256    0.03132865   -0.02753193
     atom  164 type  3   force =    -0.07168733   -0.01549242    0.03175614
     atom  165 type  3   force =     0.07360740    0.01686634   -0.09553633
     atom  166 type  4   force =    -0.01532595   -0.02357404    0.01440776
     atom  167 type  4   force =    -0.00047917    0.01407654   -0.00689346
     atom  168 type  4   force =     0.00289712    0.04244871    0.08504679
     atom  169 type  4   force =     0.04229591    0.03909777   -0.04860810
     atom  170 type  4   force =    -0.04394463   -0.02112859    0.05658369
     atom  171 type  4   force =     0.00930384    0.02761459    0.00207622
     atom  172 type  4   force =    -0.01850065   -0.01657663   -0.00363061
     atom  173 type  4   force =     0.08116985   -0.05799457    0.04514125
     atom  174 type  4   force =     0.00492670   -0.01064528    0.01383928
     atom  175 type  4   force =    -0.03827435    0.03015606    0.02816191
     atom  176 type  2   force =     0.00081928    0.04433152   -0.01567581
     atom  177 type  3   force =     0.04793254   -0.02807520    0.01145884
     atom  178 type  3   force =     0.02084008    0.01164362    0.00093791
     atom  179 type  4   force =     0.06669509    0.01919934   -0.00005901
     atom  180 type  4   force =     0.02448796   -0.04253295   -0.00724622
     atom  181 type  4   force =     0.01662054    0.00981928   -0.01505168
     atom  182 type  4   force =    -0.01934549   -0.02972235   -0.00125871
     atom  183 type  4   force =     0.00350974   -0.01124136   -0.04601544
     atom  184 type  4   force =     0.02920685    0.00345758   -0.00858830
     atom  185 type  4   force =    -0.06412581   -0.00284747   -0.03561728
     atom  186 type  4   force =    -0.04045043   -0.02596600    0.01444501
     atom  187 type  1   force =    -0.00182281    0.00646125   -0.00034396
     atom  188 type  1   force =     0.00491295    0.00938476   -0.00279679
     atom  189 type  1   force =     0.00517646    0.00663638    0.00125041
     atom  190 type  2   force =    -0.01275326   -0.01615837    0.00010025
     atom  191 type  3   force =    -0.02169580    0.00013510   -0.01803496
     atom  192 type  3   force =     0.03074252   -0.05302273   -0.07171814
     atom  193 type  3   force =     0.01398195    0.00698895    0.01545449
     atom  194 type  3   force =     0.01576725   -0.03600359   -0.01027792
     atom  195 type  3   force =     0.02900487    0.04284498   -0.00604377
     atom  196 type  3   force =    -0.00041474    0.02501548   -0.00035162
     atom  197 type  4   force =     0.00848249    0.01085442   -0.02773567
     atom  198 type  4   force =     0.01184717   -0.02294344   -0.00544011
     atom  199 type  4   force =     0.01755768   -0.03445807   -0.01397036
     atom  200 type  4   force =    -0.02403093    0.07672394   -0.00611784
     atom  201 type  4   force =     0.01314206    0.01683079   -0.02795780
     atom  202 type  4   force =     0.00822324    0.01812378   -0.02843155
     atom  203 type  4   force =     0.03829498    0.00049668   -0.00662391
     atom  204 type  4   force =    -0.03850667   -0.06036370    0.01833689
     atom  205 type  4   force =    -0.04584024    0.01471676    0.04420444
     atom  206 type  4   force =    -0.00628125   -0.03608500    0.00492225
     atom  207 type  4   force =     0.01420603   -0.02537877    0.01146693
     atom  208 type  4   force =     0.00134412    0.07249939    0.04967395
     atom  209 type  4   force =    -0.02551019    0.00128234    0.02088386
     atom  210 type  4   force =     0.00618968   -0.00410276   -0.00585562
     atom  211 type  4   force =    -0.05481544    0.02463950   -0.05649005
     atom  212 type  4   force =     0.03217725    0.00600282    0.02503793
     atom  213 type  1   force =    -0.01904709   -0.00316438   -0.01067818
     atom  214 type  2   force =    -0.00850652    0.01427334   -0.01845505
     atom  215 type  2   force =     0.01513079    0.01237236    0.01014801
     atom  216 type  3   force =    -0.04327042    0.02952741    0.04598716
     atom  217 type  3   force =    -0.05678253    0.00075535    0.04598902
     atom  218 type  3   force =    -0.09832086    0.04420244   -0.03013317
     atom  219 type  3   force =     0.09821162    0.01894437    0.03381407
     atom  220 type  3   force =    -0.03092470    0.00278119    0.01307241
     atom  221 type  3   force =     0.03123904   -0.05047944    0.03346559
     atom  222 type  4   force =    -0.03197165   -0.02179316    0.01899652
     atom  223 type  4   force =     0.03891660    0.02017327   -0.00560785
     atom  224 type  4   force =    -0.02610402   -0.02441250   -0.04500202
     atom  225 type  4   force =    -0.01274751    0.01290711    0.01401770
     atom  226 type  4   force =    -0.01070126    0.01448042    0.01958091
     atom  227 type  4   force =     0.03486160    0.01209227   -0.00494111
     atom  228 type  4   force =    -0.00847980   -0.01966346   -0.00804358
     atom  229 type  4   force =     0.01468352    0.01841650    0.00502328
     atom  230 type  4   force =    -0.01730225    0.02612135   -0.02863521
     atom  231 type  4   force =     0.00368832   -0.03099937   -0.02386942
     atom  232 type  4   force =     0.03152104   -0.06204697    0.00376770
     atom  233 type  4   force =     0.05879515   -0.05868822    0.04555608
     atom  234 type  4   force =    -0.01141961   -0.01042973   -0.01598140
     atom  235 type  4   force =     0.09098492   -0.00365862    0.06770294
     atom  236 type  4   force =    -0.08796911    0.01690396   -0.04611230
     atom  237 type  1   force =    -0.00442367   -0.00594851    0.00222708
     atom  238 type  1   force =    -0.00933951   -0.00160519   -0.00895320
     atom  239 type  1   force =    -0.00270379    0.00715147   -0.00873907
     atom  240 type  2   force =    -0.04343375    0.06494736   -0.00749133
     atom  241 type  2   force =     0.01472297    0.01272519    0.01227005
     atom  242 type  3   force =    -0.04229963   -0.03310232    0.01361009
     atom  243 type  3   force =    -0.02435830    0.02369419    0.01661006
     atom  244 type  3   force =     0.01919311   -0.05286737   -0.02731500
     atom  245 type  3   force =     0.02417978    0.01102202   -0.06076179
     atom  246 type  3   force =    -0.04380242    0.03575673   -0.01433782
     atom  247 type  3   force =     0.00976377   -0.02909694    0.00822897
     atom  248 type  4   force =    -0.01880929   -0.01176267    0.01807148
     atom  249 type  4   force =    -0.03549256   -0.00933084    0.01136867
     atom  250 type  4   force =     0.00039622    0.00694489   -0.03368986
     atom  251 type  4   force =    -0.00323267   -0.00544006    0.00143101
     atom  252 type  4   force =    -0.01200260    0.04484972    0.02008077
     atom  253 type  4   force =    -0.01383899    0.02347873    0.02833809
     atom  254 type  4   force =    -0.00479015    0.01970435    0.00127185
     atom  255 type  4   force =     0.00434647   -0.01585664    0.01610084
     atom  256 type  4   force =     0.00828931    0.01938325   -0.02060049
     atom  257 type  4   force =    -0.00777991    0.00832421    0.00847169
     atom  258 type  4   force =    -0.01939630   -0.00808164   -0.01742501
     atom  259 type  4   force =    -0.01102430   -0.04318446    0.05070881
     atom  260 type  4   force =     0.01215448   -0.01406078   -0.00725454
     atom  261 type  4   force =     0.07023418   -0.08832796    0.06508767
     atom  262 type  4   force =     0.00640570   -0.03176163    0.01625704
     atom  263 type  4   force =     0.00106092    0.00370007   -0.00215293
     atom  264 type  4   force =    -0.02975138   -0.00052550   -0.01526764
     atom  265 type  5   force =    -0.02644866    0.01436518    0.01780341
     atom  266 type  5   force =     0.03389467    0.00987871    0.01578209
     atom  267 type  5   force =    -0.02172771    0.01008318    0.02353678
     atom  268 type  5   force =     0.01298117    0.00075580   -0.02132479
     atom  269 type  5   force =     0.01496355    0.00226398   -0.03551936
     atom  270 type  5   force =    -0.05018755   -0.01306533    0.02229158
     atom  271 type  5   force =     0.04337786   -0.02023001   -0.01337522
     atom  272 type  5   force =    -0.00664063    0.00145677   -0.01028534
     atom  273 type  5   force =    -0.00311924   -0.00837133    0.00157407
     atom  274 type  5   force =    -0.05820443    0.01388782    0.04462240
     atom  275 type  5   force =     0.01580426   -0.00551942   -0.00687378
     atom  276 type  5   force =    -0.01614322    0.01715251    0.00674967
     atom  277 type  5   force =    -0.01379865   -0.01486236   -0.06428636
     atom  278 type  5   force =     0.01334080   -0.02166015   -0.00125532
     atom  279 type  5   force =     0.02277447    0.02493589    0.01717725
     atom  280 type  5   force =    -0.02489926   -0.00305889    0.01702818
     atom  281 type  4   force =     0.01521136   -0.01786981    0.03224014
     atom  282 type  5   force =     0.00340888    0.03716660   -0.00588666
     atom  283 type  5   force =     0.00233324   -0.01184328   -0.02021143
     atom  284 type  4   force =     0.03015103   -0.01958093    0.03325972
     atom  285 type  5   force =    -0.03221499   -0.01078663    0.00012536
     atom  286 type  5   force =     0.00763625    0.01642036   -0.02468946
     atom  287 type  4   force =     0.02815745   -0.02867594    0.03061165
     atom  288 type  5   force =    -0.04518046    0.03974854   -0.04367143
     atom  289 type  5   force =     0.01048700    0.00023906    0.00349553
     atom  290 type  4   force =    -0.05629641    0.01979789   -0.00360763
     atom  291 type  5   force =     0.02245085    0.00754439   -0.00479570
     atom  292 type  5   force =     0.03167605   -0.02675386    0.01691698
     atom  293 type  4   force =    -0.06960400    0.00622737    0.00676560
     atom  294 type  5   force =     0.02255316    0.00029953    0.02129836
     atom  295 type  5   force =     0.06058045    0.00115321   -0.02434105
     atom  296 type  4   force =    -0.01213212    0.03804252    0.06076127
     atom  297 type  5   force =    -0.02219451    0.00060134   -0.01360889
     atom  298 type  5   force =     0.03511635   -0.03182222   -0.04581118
     atom  299 type  4   force =     0.02675263   -0.04899294   -0.01109392
     atom  300 type  5   force =     0.02894690    0.03556262    0.01959478
     atom  301 type  5   force =    -0.05411829    0.02217722   -0.00906553
     atom  302 type  4   force =    -0.04071938   -0.03345232    0.06233458
     atom  303 type  5   force =     0.04854611    0.02598412   -0.03360403
     atom  304 type  5   force =    -0.02210547    0.00381677   -0.02881356
     atom  305 type  4   force =     0.04076597   -0.09081938   -0.02612097
     atom  306 type  5   force =    -0.05739991    0.05566705    0.02606641
     atom  307 type  5   force =     0.03723879    0.02583992   -0.00918384
     atom  308 type  4   force =    -0.03692521   -0.03052377   -0.03083353
     atom  309 type  5   force =     0.00460963    0.00526051    0.02315319
     atom  310 type  5   force =     0.03205227    0.03175567    0.02927262
     atom  311 type  4   force =     0.07471619    0.00296065   -0.02503346
     atom  312 type  5   force =    -0.06272813   -0.00623702    0.01311601
     atom  313 type  5   force =    -0.01617109    0.00846198   -0.00464235
     atom  314 type  4   force =     0.00332546   -0.04402733   -0.00367324
     atom  315 type  5   force =     0.00529400    0.01269040    0.00268415
     atom  316 type  5   force =    -0.00648583    0.02846640   -0.00666268
     atom  317 type  4   force =     0.01367216   -0.00185050   -0.00050615
     atom  318 type  5   force =    -0.00446520    0.01675868    0.00418185
     atom  319 type  5   force =    -0.01107056   -0.00082889   -0.00787753
     atom  320 type  4   force =     0.11104979    0.00963746   -0.03148375
     atom  321 type  5   force =     0.00698028    0.00828446    0.00732052
     atom  322 type  5   force =    -0.11012101   -0.01439850    0.02334882
     atom  323 type  4   force =    -0.01990604   -0.04337068    0.09979919
     atom  324 type  5   force =     0.00719292    0.06337513   -0.07579373
     atom  325 type  5   force =     0.00222710   -0.00575319   -0.02190189
     atom  326 type  4   force =     0.03059909   -0.01406399   -0.01604314
     atom  327 type  5   force =    -0.01218736    0.00491639    0.02725398
     atom  328 type  5   force =    -0.00746953    0.00879597    0.00067130
     atom  329 type  4   force =     0.04170838   -0.06311829    0.05587975
     atom  330 type  5   force =    -0.00755023    0.06802934   -0.05860837
     atom  331 type  5   force =    -0.01985654   -0.00064525    0.00597237
     atom  332 type  4   force =    -0.00991231   -0.03826326   -0.01583084
     atom  333 type  5   force =    -0.00973975    0.04116322    0.01017323
     atom  334 type  5   force =     0.00354060   -0.01286205    0.00126301
     atom  335 type  4   force =    -0.02559942   -0.03737278    0.06579219
     atom  336 type  5   force =     0.02169614    0.02563055   -0.06275514
     atom  337 type  5   force =    -0.00098981    0.00357386    0.01032647
     atom  338 type  4   force =    -0.04325796    0.03068125    0.00386390
     atom  339 type  5   force =     0.03330363   -0.02979651   -0.00699550
     atom  340 type  5   force =     0.00863976   -0.00622281   -0.00088137
     atom  341 type  4   force =    -0.01899193   -0.04125051   -0.00549347
     atom  342 type  5   force =     0.00554635    0.01875440    0.01383141
     atom  343 type  5   force =     0.00875008    0.02425883   -0.00003517
     atom  344 type  4   force =     0.02662624   -0.06616041    0.01745303
     atom  345 type  5   force =    -0.00870808    0.00540091   -0.05785745
     atom  346 type  5   force =    -0.02390604    0.05500099    0.03829263
     atom  347 type  4   force =     0.01054918   -0.11219640    0.00832018
     atom  348 type  5   force =    -0.02750398    0.06722946   -0.02978889
     atom  349 type  5   force =     0.01353595    0.03943167    0.00877414
     atom  350 type  4   force =    -0.05944034    0.02273932    0.02276543
     atom  351 type  5   force =     0.04893007   -0.01831847    0.00758502
     atom  352 type  5   force =     0.02546058   -0.01415104   -0.02675071
     atom  353 type  4   force =    -0.02026644    0.06273558   -0.00616847
     atom  354 type  5   force =     0.01145851   -0.04146457    0.03491359
     atom  355 type  5   force =    -0.01452317   -0.03195088   -0.04746232
     atom  356 type  4   force =     0.00671961    0.02493358    0.01948986
     atom  357 type  5   force =    -0.00777684   -0.00996217   -0.00627008
     atom  358 type  5   force =    -0.01827833   -0.01846804   -0.01067309
     atom  359 type  4   force =     0.02176142   -0.03026003    0.00270735
     atom  360 type  5   force =     0.03330569    0.03096199    0.04184188
     atom  361 type  5   force =    -0.04670184   -0.01519505   -0.04383069
     atom  362 type  4   force =    -0.01527152    0.02033680    0.00296146
     atom  363 type  5   force =     0.01602985   -0.00124339    0.02288364
     atom  364 type  5   force =     0.00704846   -0.01143785   -0.01558375
     atom  365 type  4   force =     0.03700460    0.01225650   -0.01264663
     atom  366 type  5   force =    -0.01156881   -0.02564502    0.02465115
     atom  367 type  5   force =    -0.02533762    0.00796017   -0.00567883
     atom  368 type  4   force =     0.04873468   -0.00647354    0.00512272
     atom  369 type  5   force =     0.00791797    0.01606593   -0.00817142
     atom  370 type  5   force =    -0.06344169   -0.01414696   -0.01222112
     atom  371 type  4   force =     0.06100708   -0.04608126   -0.02781760
     atom  372 type  5   force =    -0.03861838   -0.00797669   -0.00517360
     atom  373 type  5   force =    -0.02503437    0.04108783    0.01959189
     atom  374 type  4   force =     0.01629780    0.03202218    0.02216313
     atom  375 type  5   force =    -0.00188235   -0.01239050    0.00342628
     atom  376 type  5   force =    -0.02250725   -0.00492129   -0.01793566
     atom  377 type  4   force =    -0.00442611   -0.03292494   -0.00001897
     atom  378 type  5   force =    -0.02721817    0.03597555   -0.00517152
     atom  379 type  5   force =     0.03581815   -0.00410023    0.00882223
     atom  380 type  4   force =     0.01534334    0.02467554   -0.02980070
     atom  381 type  5   force =    -0.01836456   -0.01251563    0.00545737
     atom  382 type  5   force =     0.00243412   -0.01548263    0.03020890
     atom  383 type  4   force =    -0.04639587   -0.04274882    0.00967333
     atom  384 type  5   force =     0.01825338   -0.00304872    0.00127813
     atom  385 type  5   force =     0.03307905    0.05847194   -0.02047029
     atom  386 type  4   force =     0.02997611   -0.06770285    0.05211712
     atom  387 type  5   force =    -0.03528972    0.07114430   -0.06274168
     atom  388 type  5   force =     0.01049438   -0.00671182    0.01517182
     atom  389 type  4   force =    -0.00234857   -0.00378002   -0.05376951
     atom  390 type  5   force =     0.00209743    0.01452837    0.03573936
     atom  391 type  5   force =    -0.00872079    0.01638292    0.01472912
     atom  392 type  4   force =    -0.00402106   -0.03857336    0.02073774
     atom  393 type  5   force =     0.00509444    0.01026778   -0.00466395
     atom  394 type  5   force =     0.00357994    0.02276547   -0.02476894
     atom  395 type  4   force =    -0.02565516   -0.02916147    0.03036373
     atom  396 type  5   force =     0.01325580   -0.00375366   -0.01545915
     atom  397 type  5   force =     0.01938050    0.03755029   -0.03352395
     atom  398 type  4   force =    -0.02347934    0.03493906    0.01847153
     atom  399 type  5   force =     0.02368778    0.00328264    0.00665615
     atom  400 type  5   force =     0.00355536   -0.01127406   -0.01054076
     atom  401 type  4   force =    -0.02102217    0.02413018   -0.03926078
     atom  402 type  5   force =     0.03720706   -0.02629803   -0.01947496
     atom  403 type  5   force =    -0.00692652    0.00590747    0.05481701
     atom  404 type  4   force =     0.05083345   -0.03283643   -0.00416043
     atom  405 type  5   force =    -0.03338041    0.03889634    0.00671494
     atom  406 type  5   force =    -0.02346123    0.00070814    0.01080493
     atom  407 type  4   force =     0.00045074    0.03645262    0.03224656
     atom  408 type  5   force =     0.01527289   -0.00998083   -0.00887457
     atom  409 type  5   force =    -0.00821395   -0.02318665   -0.01158912
     atom  410 type  4   force =    -0.06303275   -0.02647239   -0.01492078
     atom  411 type  5   force =     0.00086744   -0.01013766   -0.00916790
     atom  412 type  5   force =     0.02057121    0.01984454   -0.00430431
     atom  413 type  4   force =    -0.04228409    0.00575914   -0.00349009
     atom  414 type  5   force =     0.02751895    0.00011060    0.01204344
     atom  415 type  5   force =     0.02709355    0.00827899   -0.00038785
     atom  416 type  4   force =    -0.04437191   -0.03152882    0.00962824
     atom  417 type  5   force =     0.04934630    0.00618242    0.00595866
     atom  418 type  5   force =     0.00582163    0.01712191   -0.01683689
     atom  419 type  4   force =     0.01954665    0.02405669    0.03270188
     atom  420 type  5   force =    -0.02100195   -0.01397178    0.00146689
     atom  421 type  5   force =    -0.00755501   -0.00663749   -0.02151866
     atom  422 type  4   force =     0.00458768    0.01087269    0.03464001
     atom  423 type  5   force =     0.00684903    0.01202870    0.01177844
     atom  424 type  5   force =    -0.00719823   -0.02849914   -0.05020751
     atom  425 type  4   force =    -0.00750512    0.00664627   -0.00274259
     atom  426 type  5   force =     0.01039659   -0.02615774   -0.00052582
     atom  427 type  5   force =     0.00231354    0.01882036    0.00714681
     atom  428 type  4   force =     0.04714641   -0.06602231    0.00303049
     atom  429 type  5   force =    -0.01730080   -0.03215890   -0.00601242
     atom  430 type  5   force =    -0.03459132    0.06190115    0.00303416
     atom  431 type  4   force =     0.00914948    0.02252232    0.03654992
     atom  432 type  5   force =     0.00343426   -0.01273559    0.00156296
     atom  433 type  5   force =    -0.01857024   -0.00470449   -0.01232249
     atom  434 type  4   force =     0.01191032    0.06866514    0.00683682
     atom  435 type  5   force =    -0.00329317   -0.04675036   -0.02154221
     atom  436 type  5   force =    -0.00148420   -0.00288691   -0.00304062
     atom  437 type  4   force =    -0.00951353   -0.08004591   -0.03558153
     atom  438 type  5   force =     0.00375542    0.04021797    0.02152173
     atom  439 type  5   force =     0.00899224    0.04117145   -0.00084589
     atom  440 type  4   force =     0.08590426   -0.00232944   -0.04525069
     atom  441 type  5   force =    -0.02635449    0.01446151   -0.00405455
     atom  442 type  5   force =    -0.05869058   -0.01147191    0.04229232
     atom  443 type  4   force =    -0.01722206   -0.04887866   -0.00546938
     atom  444 type  5   force =     0.02719764    0.03115511   -0.00283629
     atom  445 type  5   force =     0.00258767    0.01084594    0.03669642
     atom  446 type  4   force =     0.00131556    0.00588424   -0.00778485
     atom  447 type  5   force =     0.00230931   -0.00154646   -0.00359946
     atom  448 type  5   force =    -0.00847562   -0.00820541    0.00701272
     atom  449 type  4   force =    -0.00829261    0.00230642   -0.00983610
     atom  450 type  5   force =     0.02236253    0.00948519   -0.01886612
     atom  451 type  5   force =    -0.00552195   -0.00695792    0.01840366
     atom  452 type  4   force =     0.00848300   -0.01552554    0.00286697
     atom  453 type  5   force =    -0.01785038    0.00274137   -0.01385853
     atom  454 type  5   force =     0.00283184    0.01014845    0.00367991
     atom  455 type  4   force =    -0.03144797   -0.00144300    0.00976960
     atom  456 type  5   force =    -0.00365655   -0.00070266    0.01028840
     atom  457 type  5   force =     0.01292571    0.01218171   -0.00068520
     atom  458 type  4   force =    -0.07629972    0.08898351    0.03621077
     atom  459 type  5   force =     0.08084140   -0.07934598   -0.05646218
     atom  460 type  5   force =     0.01142656    0.01322331    0.02393502
     atom  461 type  4   force =     0.01998706   -0.00476540    0.06882892
     atom  462 type  5   force =    -0.04625501    0.00080134   -0.02744422
     atom  463 type  5   force =     0.03724261   -0.00442238   -0.03932442
     atom  464 type  4   force =     0.02517080    0.03207583   -0.03048329
     atom  465 type  5   force =    -0.03085271   -0.03746147    0.05735102
     atom  466 type  5   force =    -0.00289992   -0.00006301   -0.00611998
     atom  467 type  4   force =     0.00333970   -0.04308430    0.03020294
     atom  468 type  5   force =    -0.00330963    0.00779632   -0.02511939
     atom  469 type  5   force =     0.00994586    0.00997868   -0.00927902
     atom  470 type  4   force =    -0.00436380   -0.00211830   -0.01957458
     atom  471 type  5   force =    -0.00448096   -0.01236823    0.00606882
     atom  472 type  5   force =     0.01368242    0.01048064   -0.00997892
     atom  473 type  4   force =     0.02733066   -0.05135852   -0.00683949
     atom  474 type  5   force =    -0.00371060    0.03799910    0.00911736
     atom  475 type  5   force =    -0.01217011    0.00981262   -0.00217569
     atom  476 type  4   force =     0.04238989   -0.03700442   -0.09477298
     atom  477 type  5   force =    -0.06600664    0.00707520    0.00240229
     atom  478 type  5   force =     0.00219977    0.03620641    0.09020986
     atom  479 type  4   force =    -0.02987125    0.01882279   -0.01167550
     atom  480 type  5   force =    -0.00123423   -0.01124242   -0.01183790
     atom  481 type  5   force =     0.01940238    0.00275268    0.00387881
     atom  482 type  4   force =    -0.00689673   -0.00466802   -0.00594445
     atom  483 type  5   force =     0.01837554   -0.00836279   -0.01217663
     atom  484 type  5   force =    -0.00904226    0.01121674    0.01061845
     atom  485 type  4   force =    -0.01560678   -0.01872733    0.00438782
     atom  486 type  5   force =    -0.00983031    0.01922056    0.00727355
     atom  487 type  5   force =     0.00357823    0.00018792    0.00744709
     atom  488 type  4   force =     0.03370871   -0.04058891   -0.02805186
     atom  489 type  5   force =    -0.00508328    0.00674448    0.02604887
     atom  490 type  5   force =    -0.01862895    0.02048722   -0.00120383
     atom  491 type  4   force =     0.03664191    0.02739771    0.02305143
     atom  492 type  5   force =    -0.00547146   -0.01937609   -0.02347922
     atom  493 type  5   force =    -0.05300068   -0.01549867   -0.00181586

     Total force =     1.165901     Total SCF correction =     0.000493
     Message from routine punch:
     Nothing written, as per user request (disk_io='none')

     init_run     :     32.84s CPU     33.56s WALL (       1 calls)
     electrons    :    747.46s CPU    758.61s WALL (       1 calls)
     forces       :      8.40s CPU      8.71s WALL (       1 calls)

     Called by init_run:
     wfcinit      :     29.47s CPU     29.97s WALL (       1 calls)
     potinit      :      0.28s CPU      0.39s WALL (       1 calls)
     hinit0       :      2.05s CPU      2.09s WALL (       1 calls)

     Called by electrons:
     c_bands      :    625.67s CPU    634.78s WALL (      12 calls)
     sum_band     :    118.71s CPU    119.80s WALL (      12 calls)
     v_of_rho     :      2.56s CPU      3.39s WALL (      13 calls)
     mix_rho      :      0.50s CPU      0.68s WALL (      12 calls)

     Called by c_bands:
     init_us_2    :      1.48s CPU      1.59s WALL (      25 calls)
     init_us_2:cp :      1.48s CPU      1.59s WALL (      25 calls)
     regterg      :    622.78s CPU    630.65s WALL (      12 calls)

     Called by *egterg:
     rdiaghg      :      6.12s CPU      6.65s WALL (      37 calls)
     h_psi        :    551.28s CPU    556.78s WALL (      38 calls)
     g_psi        :      0.16s CPU      0.16s WALL (      25 calls)

     Called by h_psi:
     h_psi:calbec :     40.17s CPU     41.22s WALL (      38 calls)
     vloc_psi     :    119.17s CPU    120.20s WALL (      38 calls)
     add_vuspsi   :     35.69s CPU     36.21s WALL (      38 calls)
     h_psi_meta   :    355.61s CPU    358.51s WALL (      38 calls)

     General routines
     calbec       :     45.85s CPU     47.03s WALL (      42 calls)
     fft          :      3.28s CPU      3.91s WALL (     129 calls)
     ffts         :      0.16s CPU      0.25s WALL (      24 calls)
     fftw         :    567.93s CPU    572.52s WALL (  150664 calls)
     interpolate  :      0.00s CPU      0.00s WALL (      13 calls)

     Parallel routines

     PWSCF        :  13m 8.91s CPU  13m21.59s WALL


   This run was terminated on:  12:10:45   9Mar2025            

=------------------------------------------------------------------------------=
   JOB DONE.
=------------------------------------------------------------------------------=
