
     Program PWSCF v.7.3 starts on  9Mar2025 at 12:11: 1 

     This program is part of the open-source Quantum ESPRESSO suite
     for quantum simulation of materials; please cite
         "P. Giannozzi et al., J. Phys.:Condens. Matter 21 395502 (2009);
         "P. Giannozzi et al., J. Phys.:Condens. Matter 29 465901 (2017);
         "P. Giannozzi et al., J. Chem. Phys. 152 154105 (2020);
          URL http://www.quantum-espresso.org", 
     in publications or presentations arising from this work. More details at
     http://www.quantum-espresso.org/quote

     Parallel version (MPI & OpenMP), running on     120 processor cores
     Number of MPI processes:               120
     Threads/MPI process:                     1

     MPI processes distributed on     1 nodes
     600515 MiB available memory on the printing compute node when the environment starts

     Reading input from pw-water-96.in
Warning: card &CELL ignored
Warning: card / ignored
Warning: card &FCP ignored
Warning: card / ignored
Warning: card &RISM ignored
Warning: card / ignored

     Current dimensions of program PWSCF are:
     Max number of different atomic species (ntypx) = 10
     Max number of k-points (npk) =  40000
     Max angular momentum in pseudopotentials (lmaxx) =  4

     IMPORTANT: XC functional enforced from input :
     Exchange-correlation= SCAN
                           (   0   0   0   0   0 263 267)
     Any further DFT definition will be discarded
     Please, verify this is what you really want


     gamma-point specific algorithms are used

     R & G space division:  proc/nbgrp/npool/nimage =     120
     Subspace diagonalization in iterative solution of the eigenvalue problem:
     one sub-group per band group will be used
     ELPA distributed-memory algorithm (size of sub-group: 10* 10 procs)


     Parallelization info
     --------------------
     sticks:   dense  smooth     PW     G-vecs:    dense   smooth      PW
     Min         223     223     55                53054    53054    6618
     Max         226     226     58                53096    53096    6642
     Sum       27001   27001   6747              6368777  6368777  796049

     Using Slab Decomposition



     bravais-lattice index     =            0
     lattice parameter (alat)  =      27.1743  a.u.
     unit-cell volume          =   40863.0649 (a.u.)^3
     number of atoms/cell      =          493
     number of atomic types    =            5
     number of electrons       =      2104.00
     number of Kohn-Sham states=         1052
     kinetic-energy cutoff     =     110.0000  Ry
     charge density cutoff     =     440.0000  Ry
     scf convergence threshold =      1.0E-06
     mixing beta               =       0.5000
     number of iterations used =            8  plain     mixing
     Exchange-correlation= SCAN
                           (   0   0   0   0   0 263 267)

     celldm(1)=  27.174262  celldm(2)=   0.000000  celldm(3)=   0.000000
     celldm(4)=   0.000000  celldm(5)=   0.000000  celldm(6)=   0.000000

     crystal axes: (cart. coord. in units of alat)
               a(1) = (   1.000000   0.000000   0.000000 )  
               a(2) = (   0.263718   1.045271   0.000000 )  
               a(3) = (  -1.114529  -1.155389   1.948179 )  

     reciprocal axes: (cart. coord. in units 2 pi/alat)
               b(1) = (  1.000000 -0.252296  0.422460 )  
               b(2) = ( -0.000000  0.956690  0.567375 )  
               b(3) = (  0.000000  0.000000  0.513300 )  


     PseudoPot. # 1 for K  read from file:
     /scratch/zhouwq/DFT-feldspar-surface/script-dft/K_ONCV_PBE_sr.upf
     MD5 check sum: 1b7a13238029e3acac828725779bbc07
     Pseudo is Norm-conserving, Zval =  9.0
     Generated using ONCVPSP code by D. R. Hamann
     Using radial grid of 2222 points,  6 beta functions with: 
                l(1) =   0
                l(2) =   0
                l(3) =   1
                l(4) =   1
                l(5) =   2
                l(6) =   2

     PseudoPot. # 2 for Al read from file:
     /scratch/zhouwq/DFT-feldspar-surface/script-dft/Al_ONCV_PBE_sr.upf
     MD5 check sum: f1d308f5052db2acb2ab62005e7ebd82
     Pseudo is Norm-conserving, Zval = 11.0
     Generated using ONCVPSP code by D. R. Hamann
     Using radial grid of 1876 points,  4 beta functions with: 
                l(1) =   0
                l(2) =   0
                l(3) =   1
                l(4) =   1

     PseudoPot. # 3 for Si read from file:
     /scratch/zhouwq/DFT-feldspar-surface/script-dft/Si_ONCV_PBE_sr.upf
     MD5 check sum: 8553c464762ac42b85b1eed164b4d029
     Pseudo is Norm-conserving, Zval =  4.0
     Generated using ONCVPSP code by D. R. Hamann
     Using radial grid of 1510 points,  4 beta functions with: 
                l(1) =   0
                l(2) =   0
                l(3) =   1
                l(4) =   1

     PseudoPot. # 4 for O  read from file:
     /scratch/zhouwq/DFT-feldspar-surface/script-dft/O_ONCV_PBE_sr.upf
     MD5 check sum: 503208cc3dd01d9a06cc7045986f7d49
     Pseudo is Norm-conserving, Zval =  6.0
     Generated using ONCVPSP code by D. R. Hamann
     Using radial grid of  936 points,  4 beta functions with: 
                l(1) =   0
                l(2) =   0
                l(3) =   1
                l(4) =   1

     PseudoPot. # 5 for H  read from file:
     /scratch/zhouwq/DFT-feldspar-surface/script-dft/H_ONCV_PBE_sr.upf
     MD5 check sum: 8975ef619c0c80d0ef0fa21f3286b90d
     Pseudo is Norm-conserving, Zval =  1.0
     Generated using ONCVPSP code by D. R. Hamann
     Using radial grid of 1166 points,  2 beta functions with: 
                l(1) =   0
                l(2) =   0

     atomic species   valence    mass     pseudopotential
     K                 9.00    39.09830     K ( 1.00)
     Al               11.00    26.98154     Al( 1.00)
     Si                4.00    28.08500     Si( 1.00)
     O                 6.00    15.99900     O ( 1.00)
     H                 1.00     1.00800     H ( 1.00)

     No symmetry found



   Cartesian axes

     site n.     atom                  positions (alat units)
         1        K      tau(   1) = (  -0.9464835  -0.8889680   2.7564620  )
         2        Al     tau(   2) = (  -1.1932597  -1.6441778   2.8003350  )
         3        Si     tau(   3) = (  -1.0686564  -0.8377512   2.9656241  )
         4        Si     tau(   4) = (  -1.4725597  -1.6455768   2.8038194  )
         5        Si     tau(   5) = (  -1.2131567  -0.8123121   2.8041924  )
         6        Si     tau(   6) = (  -1.3290104  -1.6673776   2.9697152  )
         7        Si     tau(   7) = (  -0.9827645  -0.6969755   2.6233679  )
         8        Si     tau(   8) = (  -1.3358032  -1.5122210   2.6972596  )
         9        O      tau(   9) = (  -1.5804569  -1.6298045   2.8175012  )
        10        O      tau(  10) = (  -1.2207271  -0.8779072   2.7126502  )
        11        O      tau(  11) = (  -1.3063432  -0.8217820   2.8682819  )
        12        O      tau(  12) = (  -1.2379304  -1.6459527   2.9145372  )
        13        O      tau(  13) = (  -0.9275534  -0.6172133   2.5653734  )
        14        O      tau(  14) = (  -1.4246988  -1.5728445   2.7369190  )
        15        O      tau(  15) = (  -1.3415290  -1.5280773   2.5858961  )
        16        O      tau(  16) = (  -0.9578904  -0.7020197   2.7369412  )
        17        O      tau(  17) = (  -1.3362733  -1.7779693   3.0089237  )
        18        O      tau(  18) = (  -1.1952829  -0.7090977   2.7639207  )
        19        O      tau(  19) = (  -1.0943797  -0.6876491   2.6093411  )
        20        O      tau(  20) = (  -1.2433174  -1.5481384   2.7461812  )
        21        O      tau(  21) = (  -1.1138130  -0.8356695   2.8616637  )
        22        O      tau(  22) = (  -1.4214837  -1.6459548   2.9073290  )
        23        Al     tau(  23) = (  -1.0590010  -1.1156764   2.7905217  )
        24        Si     tau(  24) = (  -1.2040630  -0.9865841   2.6905467  )
        25        Si     tau(  25) = (  -1.1220907  -1.2414836   2.6171894  )
        26        O      tau(  26) = (  -1.4480555  -1.0949038   2.8103764  )
        27        O      tau(  27) = (  -0.9471434  -0.7975363   2.5857236  )
        28        O      tau(  28) = (  -1.1300152  -1.3598538   2.6164324  )
        29        O      tau(  29) = (  -1.3003388  -1.0476158   2.7263932  )
        30        O      tau(  30) = (  -1.0502395  -1.2144243   2.5262596  )
        31        O      tau(  31) = (  -1.0822984  -1.2141582   2.7171533  )
        32        O      tau(  32) = (  -1.1962332  -0.9854842   2.5771293  )
        33        O      tau(  33) = (  -1.1162716  -1.0181430   2.7496489  )
        34        O      tau(  34) = (  -1.2273167  -1.2061379   2.5899149  )
        35        O      tau(  35) = (  -1.8432912  -1.9499409   3.6709150  )
        36        Al     tau(  36) = (  -1.5935102  -1.1111512   3.4516057  )
        37        Si     tau(  37) = (  -1.4460919  -1.2360334   3.5531003  )
        38        Si     tau(  38) = (  -1.8060570  -2.0518931   3.6316230  )
        39        O      tau(  39) = (  -1.2131168  -1.1266388   3.4293909  )
        40        O      tau(  40) = (  -1.7207923  -1.4224855   3.6618588  )
        41        O      tau(  41) = (  -1.3606542  -1.1728645   3.5205044  )
        42        O      tau(  42) = (  -1.8316096  -2.1420802   3.7038893  )
        43        O      tau(  43) = (  -1.8604839  -2.0662470   3.5346705  )
        44        O      tau(  44) = (  -1.4538840  -1.2291499   3.6683601  )
        45        O      tau(  45) = (  -1.5433974  -1.2083918   3.5025756  )
        46        O      tau(  46) = (  -1.6867899  -2.0535144   3.6353413  )
        47        K      tau(  47) = (  -1.6992778  -1.3245553   3.4995309  )
        48        K      tau(  48) = (  -1.3256981  -1.7039428   3.2171785  )
        49        K      tau(  49) = (  -1.8453747  -1.8494013   3.5362736  )
        50        Al     tau(  50) = (  -1.7216478  -1.6340423   3.4425828  )
        51        Si     tau(  51) = (  -1.5847821  -1.3942988   3.2853815  )
        52        Si     tau(  52) = (  -1.4398906  -1.6291603   3.4275318  )
        53        Si     tau(  53) = (  -1.4290568  -1.4154001   3.4351965  )
        54        Si     tau(  54) = (  -1.5874822  -1.5979294   3.2727907  )
        55        Si     tau(  55) = (  -1.6801418  -1.5275433   3.6238359  )
        56        Si     tau(  56) = (  -1.5798381  -1.7555136   3.5463262  )
        57        O      tau(  57) = (  -1.3392310  -1.6742817   3.4201120  )
        58        O      tau(  58) = (  -1.4158959  -1.3423718   3.5248684  )
        59        O      tau(  59) = (  -1.5585893  -1.8639398   3.5223636  )
        60        O      tau(  60) = (  -1.5897745  -1.6677252   3.1885959  )
        61        O      tau(  61) = (  -1.3423671  -1.3994306   3.3677282  )
        62        O      tau(  62) = (  -1.6783236  -1.6033358   3.3368969  )
        63        O      tau(  63) = (  -1.7133147  -1.6187866   3.6899571  )
        64        O      tau(  64) = (  -1.4962092  -1.6949980   3.4983620  )
        65        O      tau(  65) = (  -1.5786360  -1.7519975   3.6600553  )
        66        O      tau(  66) = (  -1.7003403  -1.5383516   3.5189849  )
        67        O      tau(  67) = (  -1.5726419  -1.4917013   3.2300142  )
        68        O      tau(  68) = (  -1.4364066  -1.5222989   3.4736702  )
        69        O      tau(  69) = (  -1.5661577  -1.5312314   3.6522515  )
        70        O      tau(  70) = (  -1.6728098  -1.7256274   3.4915990  )
        71        O      tau(  71) = (  -1.5292339  -1.4012076   3.3838870  )
        72        O      tau(  72) = (  -1.4919400  -1.6310778   3.3292044  )
        73        K      tau(  73) = (  -1.1987611  -1.1498437   3.2371334  )
        74        Al     tau(  74) = (  -1.3490252  -0.8375085   2.9808588  )
        75        Al     tau(  75) = (  -1.4456933  -1.9160745   3.2603168  )
        76        Si     tau(  76) = (  -1.3154534  -1.1029280   3.4454439  )
        77        Si     tau(  77) = (  -1.7214544  -1.9100627   3.2889606  )
        78        Si     tau(  78) = (  -1.4522872  -1.0730446   3.2834556  )
        79        Si     tau(  79) = (  -1.5821311  -1.9393886   3.4415308  )
        80        Si     tau(  80) = (  -1.2048124  -0.9673669   3.0755125  )
        81        Si     tau(  81) = (  -1.5813208  -1.7812257   3.1709955  )
        82        O      tau(  82) = (  -0.9620394  -0.8628861   2.9482463  )
        83        O      tau(  83) = (  -1.8298869  -1.8849844   3.2890051  )
        84        O      tau(  84) = (  -1.4677490  -1.1365361   3.1901712  )
        85        O      tau(  85) = (  -1.5412236  -1.0721034   3.3508793  )
        86        O      tau(  86) = (  -1.5007611  -1.9375197   3.3670659  )
        87        O      tau(  87) = (  -1.1158374  -0.9163012   3.0291570  )
        88        O      tau(  88) = (  -1.6592941  -1.8325245   3.2342223  )
        89        O      tau(  89) = (  -1.6015805  -1.7938411   3.0652150  )
        90        O      tau(  90) = (  -1.2008110  -0.9668404   3.1898484  )
        91        O      tau(  91) = (  -1.5925897  -2.0436313   3.4870180  )
        92        O      tau(  92) = (  -1.4353126  -0.9682514   3.2443306  )
        93        O      tau(  93) = (  -1.3028370  -0.9412071   3.0292349  )
        94        O      tau(  94) = (  -1.4744172  -1.8129794   3.1984871  )
        95        O      tau(  95) = (  -1.3619280  -1.1079358   3.3428027  )
        96        O      tau(  96) = (  -1.6819272  -1.9147734   3.3977692  )
        97        K      tau(  97) = (  -1.4633097  -1.0560633   3.0076491  )
        98        K      tau(  98) = (  -1.0651414  -1.4339196   2.7673996  )
        99        K      tau(  99) = (  -1.5803529  -1.5820293   3.0123804  )
       100        Al     tau( 100) = (  -1.3030669  -1.3820825   3.2584131  )
       101        Al     tau( 101) = (  -1.4809772  -1.3471188   2.9807197  )
       102        Si     tau( 102) = (  -1.3403966  -1.1285266   2.7978302  )
       103        Si     tau( 103) = (  -1.1980370  -1.3585385   2.9615385  )
       104        Si     tau( 104) = (  -1.2001298  -1.1523079   2.9590837  )
       105        Si     tau( 105) = (  -1.3314301  -1.3327362   2.8058288  )
       106        Si     tau( 106) = (  -1.4492669  -1.2529820   3.1686522  )
       107        Si     tau( 107) = (  -1.3401614  -1.4825210   3.0802549  )
       108        O      tau( 108) = (  -1.6909263  -1.3772057   3.3031266  )
       109        O      tau( 109) = (  -1.0910570  -1.3882935   2.9680287  )
       110        O      tau( 110) = (  -1.1909445  -1.0781821   3.0461507  )
       111        O      tau( 111) = (  -1.3351676  -1.5989357   3.0629662  )
       112        O      tau( 112) = (  -1.3553954  -1.4036684   2.7219569  )
       113        O      tau( 113) = (  -1.1062232  -1.1490041   2.9009835  )
       114        O      tau( 114) = (  -1.4139687  -1.3335611   2.8783456  )
       115        O      tau( 115) = (  -1.5388818  -1.3095557   3.2209023  )
       116        O      tau( 116) = (  -1.2568076  -1.4334531   3.0194773  )
       117        O      tau( 117) = (  -1.3165696  -1.4768414   3.1910729  )
       118        O      tau( 118) = (  -1.4617280  -1.2512331   3.0548507  )
       119        O      tau( 119) = (  -1.3182075  -1.2307260   2.7548589  )
       120        O      tau( 120) = (  -1.2097923  -1.2563611   3.0037750  )
       121        O      tau( 121) = (  -1.3471186  -1.2821059   3.2057678  )
       122        O      tau( 122) = (  -1.4429788  -1.4357349   3.0552737  )
       123        O      tau( 123) = (  -1.2918048  -1.1206298   2.8983284  )
       124        O      tau( 124) = (  -1.2293466  -1.3548157   2.8501193  )
       125        H      tau( 125) = (  -1.7010969  -1.4159468   3.7292101  )
       126        H      tau( 126) = (  -1.8922477  -2.1670136   3.7036444  )
       127        H      tau( 127) = (  -1.5054687  -1.1841439   3.6867064  )
       128        H      tau( 128) = (  -1.6385746  -2.0444143   3.5848055  )
       129        H      tau( 129) = (  -1.8712719  -1.9547529   3.7307352  )
       130        H      tau( 130) = (  -1.7758971  -1.6524087   3.6888271  )
       131        H      tau( 131) = (  -1.6221743  -1.7047918   3.6896843  )
       132        H      tau( 132) = (  -1.5195822  -1.5452179   3.6037752  )
       133        H      tau( 133) = (  -0.9355500  -0.5510651   2.5646220  )
       134        H      tau( 134) = (  -1.0891687  -0.5444917   2.5613936  )
       135        H      tau( 135) = (  -1.1267310  -0.6894220   2.6685490  )
       136        H      tau( 136) = (  -0.8966783  -0.8075540   2.5406650  )
       137        H      tau( 137) = (  -1.1320847  -1.3860188   2.5526824  )
       138        H      tau( 138) = (  -0.9900932  -1.1915458   2.5436930  )
       139        H      tau( 139) = (  -1.2134996  -1.0426018   2.5484020  )
       140        H      tau( 140) = (  -1.2767592  -1.1863273   2.6331868  )
       141        K      tau( 141) = (  -0.4456424  -0.9004651   2.7564342  )
       142        Al     tau( 142) = (  -0.6998406  -1.6503803   2.8043260  )
       143        Si     tau( 143) = (  -0.5671049  -0.8380627   2.9667150  )
       144        Si     tau( 144) = (  -0.9771432  -1.6504033   2.8081555  )
       145        Si     tau( 145) = (  -0.6993107  -0.8092291   2.8073095  )
       146        Si     tau( 146) = (  -0.8423939  -1.6790455   2.9737174  )
       147        Si     tau( 147) = (  -0.4676138  -0.7053027   2.6189873  )
       148        Si     tau( 148) = (  -0.8359927  -1.5187893   2.6956343  )
       149        O      tau( 149) = (  -1.0790549  -1.6128947   2.8240694  )
       150        O      tau( 150) = (  -0.7155420  -0.8830974   2.7283971  )
       151        O      tau( 151) = (  -0.7781528  -0.8174996   2.8847190  )
       152        O      tau( 152) = (  -0.7506245  -1.6719666   2.9091046  )
       153        O      tau( 153) = (  -0.4151530  -0.6222174   2.5592617  )
       154        O      tau( 154) = (  -0.9287018  -1.5700272   2.7434871  )
       155        O      tau( 155) = (  -0.8447359  -1.5318236   2.5846882  )
       156        O      tau( 156) = (  -0.4480950  -0.7003907   2.7310132  )
       157        O      tau( 157) = (  -0.8502536  -1.7824191   3.0172007  )
       158        O      tau( 158) = (  -0.7036086  -0.7073478   2.7590948  )
       159        O      tau( 159) = (  -0.5803715  -0.6901301   2.6029566  )
       160        O      tau( 160) = (  -0.7439263  -1.5551459   2.7483019  )
       161        O      tau( 161) = (  -0.5988953  -0.8245855   2.8540268  )
       162        O      tau( 162) = (  -0.9369325  -1.6552060   2.9131679  )
       163        Al     tau( 163) = (  -0.5648202  -1.1300989   2.7878054  )
       164        Si     tau( 164) = (  -0.6994613  -0.9886171   2.6985009  )
       165        Si     tau( 165) = (  -0.6261301  -1.2378762   2.6159148  )
       166        O      tau( 166) = (  -0.9433527  -1.0889269   2.8078049  )
       167        O      tau( 167) = (  -0.4395677  -0.8105896   2.5822725  )
       168        O      tau( 168) = (  -0.6120903  -1.3480424   2.5822614  )
       169        O      tau( 169) = (  -0.7815134  -1.0494853   2.7546418  )
       170        O      tau( 170) = (  -0.5830055  -1.1776190   2.5326552  )
       171        O      tau( 171) = (  -0.5772871  -1.2296731   2.7196136  )
       172        O      tau( 172) = (  -0.7193203  -0.9968837   2.5868368  )
       173        O      tau( 173) = (  -0.6008378  -1.0235014   2.7315698  )
       174        O      tau( 174) = (  -0.7329152  -1.2054793   2.6087065  )
       175        O      tau( 175) = (  -1.3310577  -1.9346947   3.6732751  )
       176        Al     tau( 176) = (  -1.0974025  -1.1060985   3.4598103  )
       177        Si     tau( 177) = (  -0.9459538  -1.2375608   3.5451907  )
       178        Si     tau( 178) = (  -1.3074280  -2.0476801   3.6398722  )
       179        O      tau( 179) = (  -1.7097458  -1.1311113   3.4133323  )
       180        O      tau( 180) = (  -1.2407386  -1.4355194   3.6631724  )
       181        O      tau( 181) = (  -0.8570549  -1.1878092   3.4981004  )
       182        O      tau( 182) = (  -1.3467153  -2.1243834   3.7121329  )
       183        O      tau( 183) = (  -1.3462870  -2.0528777   3.5332956  )
       184        O      tau( 184) = (  -0.9291688  -1.2305792   3.6589421  )
       185        O      tau( 185) = (  -1.0443664  -1.2001312   3.5162741  )
       186        O      tau( 186) = (  -1.1924154  -2.0707368   3.6516726  )
       187        K      tau( 187) = (  -1.2181397  -1.3156729   3.5019689  )
       188        K      tau( 188) = (  -0.8387325  -1.6955934   3.2215480  )
       189        K      tau( 189) = (  -1.3388825  -1.8498532   3.4999595  )
       190        Al     tau( 190) = (  -1.2291931  -1.6333316   3.4527579  )
       191        Si     tau( 191) = (  -1.0844420  -1.3995085   3.2788022  )
       192        Si     tau( 192) = (  -0.9539062  -1.6247329   3.4491566  )
       193        Si     tau( 193) = (  -0.9463584  -1.4221089   3.4368274  )
       194        Si     tau( 194) = (  -1.0927128  -1.6074618   3.2815408  )
       195        Si     tau( 195) = (  -1.1883884  -1.5274570   3.6300812  )
       196        Si     tau( 196) = (  -1.1011160  -1.7668014   3.5555438  )
       197        O      tau( 197) = (  -1.8458680  -1.6548481   3.4362707  )
       198        O      tau( 198) = (  -0.9359324  -1.3435513   3.5198476  )
       199        O      tau( 199) = (  -1.0725620  -1.8732464   3.5293881  )
       200        O      tau( 200) = (  -1.1076659  -1.6763075   3.1922084  )
       201        O      tau( 201) = (  -0.8659407  -1.4173635   3.3662588  )
       202        O      tau( 202) = (  -1.1816862  -1.6077905   3.3449846  )
       203        O      tau( 203) = (  -1.2102641  -1.6117620   3.7028262  )
       204        O      tau( 204) = (  -1.0146043  -1.7010672   3.5105520  )
       205        O      tau( 205) = (  -1.0990274  -1.7543896   3.6660223  )
       206        O      tau( 206) = (  -1.2022098  -1.5387159   3.5207995  )
       207        O      tau( 207) = (  -1.0772562  -1.5029025   3.2287841  )
       208        O      tau( 208) = (  -0.9626078  -1.5213741   3.4934248  )
       209        O      tau( 209) = (  -1.0750935  -1.5122443   3.6455720  )
       210        O      tau( 210) = (  -1.1958952  -1.7383974   3.5051472  )
       211        O      tau( 211) = (  -1.0471632  -1.4080401   3.3882342  )
       212        O      tau( 212) = (  -0.9938662  -1.6226786   3.3418620  )
       213        K      tau( 213) = (  -0.6936534  -1.1630125   3.2257449  )
       214        Al     tau( 214) = (  -0.8456460  -0.8463704   2.9860354  )
       215        Al     tau( 215) = (  -0.9428617  -1.9145539   3.2650202  )
       216        Si     tau( 216) = (  -0.8163905  -1.1035788   3.4310329  )
       217        Si     tau( 217) = (  -1.2255127  -1.9179480   3.2885153  )
       218        Si     tau( 218) = (  -0.9660688  -1.0763713   3.2810844  )
       219        Si     tau( 219) = (  -1.0804703  -1.9430453   3.4392765  )
       220        Si     tau( 220) = (  -0.7101063  -0.9760612   3.0764198  )
       221        Si     tau( 221) = (  -1.0894868  -1.7892828   3.1707785  )
       222        O      tau( 222) = (  -1.4644706  -0.8742018   2.9687189  )
       223        O      tau( 223) = (  -1.3304317  -1.8888379   3.3005550  )
       224        O      tau( 224) = (  -0.9840634  -1.1501623   3.1997451  )
       225        O      tau( 225) = (  -1.0544414  -1.0700800   3.3532115  )
       226        O      tau( 226) = (  -0.9936947  -1.9359323   3.3751592  )
       227        O      tau( 227) = (  -0.6289174  -0.9200357   3.0222493  )
       228        O      tau( 228) = (  -1.1752151  -1.8419280   3.2186814  )
       229        O      tau( 229) = (  -1.1039335  -1.7968804   3.0611015  )
       230        O      tau( 230) = (  -0.7027096  -0.9640874   3.1863361  )
       231        O      tau( 231) = (  -1.0915931  -2.0503647   3.4841125  )
       232        O      tau( 232) = (  -0.9493744  -0.9732169   3.2356862  )
       233        O      tau( 233) = (  -0.8051145  -0.9479607   3.0299418  )
       234        O      tau( 234) = (  -0.9870388  -1.8162700   3.2038140  )
       235        O      tau( 235) = (  -0.8681064  -1.0969057   3.3320543  )
       236        O      tau( 236) = (  -1.1786660  -1.9178366   3.3882676  )
       237        K      tau( 237) = (  -0.9656943  -1.0698714   3.0155030  )
       238        K      tau( 238) = (  -0.5598670  -1.4299860   2.7548589  )
       239        K      tau( 239) = (  -1.0793917  -1.5658407   3.0276040  )
       240        Al     tau( 240) = (  -0.8035989  -1.3906455   3.2654210  )
       241        Al     tau( 241) = (  -0.9781570  -1.3538865   2.9832746  )
       242        Si     tau( 242) = (  -0.8399067  -1.1293585   2.8073651  )
       243        Si     tau( 243) = (  -0.6977073  -1.3640463   2.9588722  )
       244        Si     tau( 244) = (  -0.7068089  -1.1570942   2.9654571  )
       245        Si     tau( 245) = (  -0.8441796  -1.3338484   2.8032628  )
       246        Si     tau( 246) = (  -0.9486469  -1.2592840   3.1724539  )
       247        Si     tau( 247) = (  -0.8297553  -1.4969118   3.0731636  )
       248        O      tau( 248) = (  -1.1871926  -1.3561111   3.2752176  )
       249        O      tau( 249) = (  -1.5906430  -1.3843633   2.9475060  )
       250        O      tau( 250) = (  -0.6991562  -1.0878308   3.0546280  )
       251        O      tau( 251) = (  -0.8312564  -1.6099523   3.0594261  )
       252        O      tau( 252) = (  -0.8444421  -1.4062680   2.7178045  )
       253        O      tau( 253) = (  -0.6223797  -1.1475062   2.8914096  )
       254        O      tau( 254) = (  -0.9364787  -1.3420858   2.8716049  )
       255        O      tau( 255) = (  -1.0150631  -1.3297032   3.2269528  )
       256        O      tau( 256) = (  -0.7408238  -1.4567784   3.0125473  )
       257        O      tau( 257) = (  -0.8115698  -1.4789107   3.1837422  )
       258        O      tau( 258) = (  -0.9545394  -1.2627930   3.0629885  )
       259        O      tau( 259) = (  -0.8453041  -1.2310906   2.7597461  )
       260        O      tau( 260) = (  -0.7112893  -1.2600686   3.0144733  )
       261        O      tau( 261) = (  -0.8482345  -1.2825874   3.2196611  )
       262        O      tau( 262) = (  -0.9187254  -1.4523851   3.0248988  )
       263        O      tau( 263) = (  -0.8052898  -1.1409004   2.9153165  )
       264        O      tau( 264) = (  -0.7470730  -1.3549590   2.8597990  )
       265        H      tau( 265) = (  -1.2852576  -1.4444252   3.7125949  )
       266        H      tau( 266) = (  -1.4003898  -2.1650509   3.6909646  )
       267        H      tau( 267) = (  -0.9327317  -1.1639339   3.6695402  )
       268        H      tau( 268) = (  -1.1607852  -2.0713508   3.5929544  )
       269        H      tau( 269) = (  -1.2879089  -1.9202599   3.7177103  )
       270        H      tau( 270) = (  -1.2747338  -1.6353816   3.7161517  )
       271        H      tau( 271) = (  -1.1399187  -1.7030155   3.6921001  )
       272        H      tau( 272) = (  -1.0362605  -1.5274635   3.5926706  )
       273        H      tau( 273) = (  -0.4574871  -0.5742900   2.5455799  )
       274        H      tau( 274) = (  -0.6167276  -0.5412299   2.5716521  )
       275        H      tau( 275) = (  -0.6253018  -0.6997458   2.6531918  )
       276        H      tau( 276) = (  -0.3977076  -0.8090129   2.5316421  )
       277        H      tau( 277) = (  -0.6199455  -1.3654900   2.5197471  )
       278        H      tau( 278) = (  -0.5165730  -1.1745225   2.5204262  )
       279        H      tau( 279) = (  -0.7239436  -1.0636198   2.5734890  )
       280        H      tau( 280) = (  -0.7775424  -1.2199860   2.6580678  )
       281        O      tau( 281) = (  -1.6221248  -2.2892050   4.2866899  )
       282        H      tau( 282) = (  -1.6004236  -2.3514132   4.2773609  )
       283        H      tau( 283) = (  -1.5927743  -2.2562604   4.2321743  )
       284        O      tau( 284) = (  -1.9757633  -2.0444266   4.0920779  )
       285        H      tau( 285) = (  -2.0205735  -2.0873118   4.1222358  )
       286        H      tau( 286) = (  -1.9339869  -2.0245345   4.1421072  )
       287        O      tau( 287) = (  -1.4707354  -1.8758536   4.1955207  )
       288        H      tau( 288) = (  -1.4080542  -1.8747497   4.1671496  )
       289        H      tau( 289) = (  -1.4727499  -1.9234757   4.2440805  )
       290        O      tau( 290) = (  -1.6061307  -2.3985985   4.1062217  )
       291        H      tau( 291) = (  -1.2898745  -1.3704190   4.0695737  )
       292        H      tau( 292) = (  -1.6405121  -2.3540153   4.0654547  )
       293        O      tau( 293) = (  -1.5684565  -1.9133501   4.0385921  )
       294        H      tau( 294) = (  -1.5213119  -1.8987688   4.0847083  )
       295        H      tau( 295) = (  -1.5361987  -1.9342376   3.9827628  )
       296        O      tau( 296) = (  -2.1258683  -1.6550189   4.2248658  )
       297        H      tau( 297) = (  -2.1928830  -1.6531352   4.2168338  )
       298        H      tau( 298) = (  -2.1186304  -1.6070300   4.2704644  )
       299        O      tau( 299) = (  -1.5359247  -1.6959600   4.2701638  )
       300        H      tau( 300) = (  -1.5756225  -1.6710869   4.2199063  )
       301        H      tau( 301) = (  -1.5209713  -1.7571138   4.2514112  )
       302        O      tau( 302) = (  -1.3966642  -1.6643637   3.7269892  )
       303        H      tau( 303) = (  -1.3929989  -1.6892231   3.7927319  )
       304        H      tau( 304) = (  -1.4450224  -1.7046630   3.6985458  )
       305        O      tau( 305) = (  -1.3936321  -1.7439655   3.9028485  )
       306        H      tau( 306) = (  -1.4583773  -1.7253184   3.9298280  )
       307        H      tau( 307) = (  -1.3989475  -1.8109874   3.8896900  )
       308        O      tau( 308) = (  -1.5560090  -1.6769496   3.9580933  )
       309        H      tau( 309) = (  -1.5576993  -1.6633371   4.0234241  )
       310        H      tau( 310) = (  -1.6072282  -1.7175265   3.9455804  )
       311        O      tau( 311) = (  -1.9850467  -1.6020079   4.0914601  )
       312        H      tau( 312) = (  -2.0409686  -1.6204689   4.1276962  )
       313        H      tau( 313) = (  -1.9862632  -1.6317868   4.0312781  )
       314        O      tau( 314) = (  -1.9910168  -1.5162277   3.8225446  )
       315        H      tau( 315) = (  -1.0191972  -1.5187594   3.7623236  )
       316        H      tau( 316) = (  -1.9279679  -1.4926959   3.8238248  )
       317        O      tau( 317) = (  -2.0780032  -2.3463640   4.1507682  )
       318        H      tau( 318) = (  -2.0965142  -2.2830114   4.1443003  )
       319        H      tau( 319) = (  -2.1274460  -2.3842349   4.1190352  )
       320        O      tau( 320) = (  -1.3835846  -2.1907178   4.1920863  )
       321        H      tau( 321) = (  -1.3617287  -2.1762723   4.2514000  )
       322        H      tau( 322) = (  -1.4468803  -2.1687995   4.1915575  )
       323        O      tau( 323) = (  -1.5255713  -1.5311702   3.8465962  )
       324        H      tau( 324) = (  -1.5335614  -1.5869107   3.8848696  )
       325        H      tau( 325) = (  -1.5275558  -1.5518530   3.7821839  )
       326        O      tau( 326) = (  -1.1951412  -1.5198726   3.9374315  )
       327        H      tau( 327) = (  -1.1455737  -1.5429081   3.9002936  )
       328        H      tau( 328) = (  -1.2461424  -1.4929703   3.8961412  )
       329        O      tau( 329) = (  -2.1651935  -2.4175081   4.3078193  )
       330        H      tau( 330) = (  -2.1574833  -2.4842331   4.3250690  )
       331        H      tau( 331) = (  -2.1135786  -2.4004025   4.2688613  )
       332        O      tau( 332) = (  -1.5131667  -2.1834664   4.4033691  )
       333        H      tau( 333) = (  -1.5623833  -2.2200701   4.3756827  )
       334        H      tau( 334) = (  -1.5279497  -2.1849989   4.4659558  )
       335        O      tau( 335) = (  -1.6893070  -2.0997866   3.9268000  )
       336        H      tau( 336) = (  -1.6995796  -2.1668737   3.9480797  )
       337        H      tau( 337) = (  -1.6896954  -2.0664030   3.9820003  )
       338        O      tau( 338) = (  -1.3607809  -1.6262381   4.2136610  )
       339        H      tau( 339) = (  -1.3729932  -1.6066338   4.1485696  )
       340        H      tau( 340) = (  -1.4224544  -1.6573071   4.2337384  )
       341        O      tau( 341) = (  -2.2393573  -2.0544238   4.2483998  )
       342        H      tau( 342) = (  -2.2749718  -2.0368877   4.1914629  )
       343        H      tau( 343) = (  -2.2050650  -1.9992576   4.2630780  )
       344        O      tau( 344) = (  -1.2588298  -2.1624703   4.0486503  )
       345        H      tau( 345) = (  -1.3056080  -2.1694062   4.0921392  )
       346        H      tau( 346) = (  -2.2527428  -2.2240173   4.0217041  )
       347        O      tau( 347) = (  -1.8318495  -1.8358655   4.1639769  )
       348        H      tau( 348) = (  -1.8558898  -1.7831152   4.2002075  )
       349        H      tau( 349) = (  -1.8770406  -1.8447786   4.1169200  )
       350        O      tau( 350) = (  -1.7379782  -1.5010557   4.0144124  )
       351        H      tau( 351) = (  -1.7025221  -1.4670549   4.0639629  )
       352        H      tau( 352) = (  -1.7041544  -1.4738015   3.9630640  )
       353        O      tau( 353) = (  -1.2494271  -2.3154724   3.9378434  )
       354        H      tau( 354) = (  -1.9649116  -1.3293455   3.9628691  )
       355        H      tau( 355) = (  -1.0264071  -1.2951373   3.8896677  )
       356        O      tau( 356) = (  -1.7046211  -1.7910078   3.9563455  )
       357        H      tau( 357) = (  -1.6714149  -1.8457076   3.9762225  )
       358        H      tau( 358) = (  -1.7564086  -1.8003212   3.9078080  )
       359        O      tau( 359) = (  -1.3688511  -2.1209984   3.9072347  )
       360        H      tau( 360) = (  -1.3501661  -2.1358613   3.8405402  )
       361        H      tau( 361) = (  -1.3145558  -2.1350525   3.9472336  )
       362        O      tau( 362) = (  -1.2210551  -1.2006920   3.6897845  )
       363        H      tau( 363) = (  -1.1836000  -1.2400213   3.7282193  )
       364        H      tau( 364) = (  -1.5309514  -2.2043927   3.7233600  )
       365        O      tau( 365) = (  -1.4744313  -2.0318264   4.3167642  )
       366        H      tau( 366) = (  -1.4079457  -2.0323917   4.3271786  )
       367        H      tau( 367) = (  -1.4929995  -2.0766758   4.3622403  )
       368        O      tau( 368) = (  -1.1444902  -1.7804506   3.9417397  )
       369        H      tau( 369) = (  -1.1756747  -1.8139713   3.8946049  )
       370        H      tau( 370) = (  -1.1919217  -1.7528833   3.9791058  )
       371        O      tau( 371) = (  -1.9288804  -2.5849238   4.3839319  )
       372        H      tau( 372) = (  -1.9930998  -2.5838854   4.3975079  )
       373        H      tau( 373) = (  -1.6492321  -1.6068394   4.3750593  )
       374        O      tau( 374) = (  -2.1348916  -2.5901393   4.3807703  )
       375        H      tau( 375) = (  -1.8625574  -1.5866108   4.3271397  )
       376        H      tau( 376) = (  -1.9251154  -1.5739783   4.4097703  )
       377        O      tau( 377) = (  -2.3200937  -2.3916357   4.1993002  )
       378        H      tau( 378) = (  -2.3408786  -2.3296538   4.1882401  )
       379        H      tau( 379) = (  -2.2636673  -2.3904743   4.2370726  )
       380        O      tau( 380) = (  -1.3956066  -1.2879416   3.8394381  )
       381        H      tau( 381) = (  -1.6152166  -2.2861608   3.8565097  )
       382        H      tau( 382) = (  -1.4225843  -1.2771658   3.7761835  )
       383        O      tau( 383) = (  -1.2949274  -1.8245528   4.1549039  )
       384        H      tau( 384) = (  -1.2880083  -1.7615941   4.1279077  )
       385        H      tau( 385) = (  -1.2313503  -1.8419296   4.1707510  )
       386        O      tau( 386) = (  -1.4958201  -2.2502450   3.9781540  )
       387        H      tau( 387) = (  -1.4611378  -2.3053386   3.9993391  )
       388        H      tau( 388) = (  -1.4569059  -2.2017469   3.9476511  )
       389        O      tau( 389) = (  -1.4175507  -1.9501532   3.9056873  )
       390        H      tau( 390) = (  -1.4013949  -2.0159004   3.9244733  )
       391        H      tau( 391) = (  -1.4654108  -1.9631363   3.8582686  )
       392        O      tau( 392) = (  -1.5205844  -1.9055754   3.7571136  )
       393        H      tau( 393) = (  -1.5331467  -1.9623838   3.7257869  )
       394        H      tau( 394) = (  -1.5560138  -1.8573829   3.7319375  )
       395        O      tau( 395) = (  -1.8872324  -1.7081249   3.6831997  )
       396        H      tau( 396) = (  -1.9442324  -1.6775450   3.6797319  )
       397        H      tau( 397) = (  -1.8835035  -1.7282310   3.7480462  )
       398        O      tau( 398) = (  -1.8888421  -2.1235703   3.9600471  )
       399        H      tau( 399) = (  -1.8234066  -2.1075409   3.9439217  )
       400        H      tau( 400) = (  -1.8992636  -2.0893752   4.0172400  )
       401        O      tau( 401) = (  -2.1019682  -2.1633566   4.1523045  )
       402        H      tau( 402) = (  -2.1194556  -2.1425379   4.2142176  )
       403        H      tau( 403) = (  -2.1619866  -2.1653665   4.1166807  )
       404        O      tau( 404) = (  -1.6082048  -2.4870030   4.2810736  )
       405        H      tau( 405) = (  -1.3336337  -1.5055511   4.2693789  )
       406        H      tau( 406) = (  -1.6190983  -2.4651065   4.2164163  )
       407        O      tau( 407) = (  -1.8576612  -1.7826637   3.8485444  )
       408        H      tau( 408) = (  -1.8916429  -1.7484808   3.8949556  )
       409        H      tau( 409) = (  -1.8927087  -1.8418286   3.8421544  )
       410        O      tau( 410) = (  -2.2975882  -2.6311401   4.4483109  )
       411        H      tau( 411) = (  -2.3096542  -2.5878492   4.4016158  )
       412        H      tau( 412) = (  -2.2701213  -2.6105893   4.5054760  )
       413        O      tau( 413) = (  -1.6727385  -1.4192614   3.8439579  )
       414        H      tau( 414) = (  -1.6067185  -1.4399309   3.8487893  )
       415        H      tau( 415) = (  -1.6772384  -1.3604893   3.8775111  )
       416        O      tau( 416) = (  -1.2812781  -1.6659939   4.0278827  )
       417        H      tau( 417) = (  -1.3256466  -1.6929772   3.9822563  )
       418        H      tau( 418) = (  -1.2515345  -1.6113933   3.9927264  )
       419        O      tau( 419) = (  -1.9291617  -1.9556416   3.8396106  )
       420        H      tau( 420) = (  -1.9973064  -1.9770118   3.8351632  )
       421        H      tau( 421) = (  -1.8979747  -1.9964496   3.8833834  )
       422        O      tau( 422) = (  -1.7216938  -2.0525509   4.1135636  )
       423        H      tau( 423) = (  -1.7604698  -2.0586999   4.1682518  )
       424        H      tau( 424) = (  -1.6800086  -1.9983429   4.1222135  )
       425        O      tau( 425) = (  -1.7232481  -1.1950955   3.7340583  )
       426        H      tau( 426) = (  -2.0032197  -2.2254427   3.7974131  )
       427        H      tau( 427) = (  -1.7829375  -1.2293527   3.7208775  )
       428        O      tau( 428) = (  -1.9459209  -2.3088694   3.9672442  )
       429        H      tau( 429) = (  -1.9377542  -2.3328813   4.0269141  )
       430        H      tau( 430) = (  -1.9132196  -2.2494624   3.9710905  )
       431        O      tau( 431) = (  -1.9883226  -1.8490517   4.0467689  )
       432        H      tau( 432) = (  -1.9831898  -1.9199537   4.0353024  )
       433        H      tau( 433) = (  -2.0426160  -1.8285802   4.0086903  )
       434        O      tau( 434) = (  -1.5571476  -2.1844060   4.1390625  )
       435        H      tau( 435) = (  -1.5340983  -2.2090610   4.0796541  )
       436        H      tau( 436) = (  -1.6154620  -2.1524783   4.1310749  )
       437        O      tau( 437) = (  -1.4926165  -1.5233052   4.0698798  )
       438        H      tau( 438) = (  -1.4461648  -1.4766775   4.0682545  )
       439        H      tau( 439) = (  -1.5096774  -1.5106936   4.1364630  )
       440        O      tau( 440) = (  -2.0012805  -1.6802903   3.9285979  )
       441        H      tau( 441) = (  -2.0028942  -1.6310227   3.8832331  )
       442        H      tau( 442) = (  -2.0575591  -1.7162285   3.9214787  )
       443        O      tau( 443) = (  -1.9170658  -2.4197891   4.1132964  )
       444        H      tau( 444) = (  -1.8825687  -2.4477388   4.1658750  )
       445        H      tau( 445) = (  -1.9741778  -2.3914440   4.1342365  )
       446        O      tau( 446) = (  -2.3805609  -2.5295793   4.3097619  )
       447        H      tau( 447) = (  -2.3661361  -2.4799847   4.2664288  )
       448        H      tau( 448) = (  -2.4497752  -2.5173929   4.3143485  )
       449        O      tau( 449) = (  -1.8207764  -2.5134025   4.2455889  )
       450        H      tau( 450) = (  -1.5955851  -1.5011506   4.2928573  )
       451        H      tau( 451) = (  -1.7581529  -2.5039385   4.2695348  )
       452        O      tau( 452) = (  -1.6912857  -1.6590980   4.1219964  )
       453        H      tau( 453) = (  -1.6987362  -1.6226036   4.0623766  )
       454        H      tau( 454) = (  -1.6957600  -1.7232899   4.1028041  )
       455        O      tau( 455) = (  -1.2317528  -1.9113646   3.8394214  )
       456        H      tau( 456) = (  -1.1880294  -1.9604275   3.8484665  )
       457        H      tau( 457) = (  -1.2902879  -1.9238854   3.8718224  )
       458        O      tau( 458) = (  -2.1075281  -2.2031676   3.9044349  )
       459        H      tau( 459) = (  -2.0697353  -2.2198203   3.9581267  )
       460        H      tau( 460) = (  -2.1606218  -2.2489491   3.9013568  )
       461        O      tau( 461) = (  -1.8561471  -1.6528226   4.2226393  )
       462        H      tau( 462) = (  -1.9011508  -1.6437603   4.1726658  )
       463        H      tau( 463) = (  -1.7948002  -1.6488477   4.1971293  )
       464        O      tau( 464) = (  -1.0613991  -1.3050755   3.7673833  )
       465        H      tau( 465) = (  -1.0079839  -1.2768116   3.7375761  )
       466        H      tau( 466) = (  -1.0832130  -1.3547209   3.7283585  )
       467        O      tau( 467) = (  -2.0855550  -2.0348685   3.8174904  )
       468        H      tau( 468) = (  -2.0998119  -2.0471644   3.7518591  )
       469        H      tau( 469) = (  -2.0938936  -2.0928449   3.8517895  )
       470        O      tau( 470) = (  -1.7239186  -2.2785501   4.0008809  )
       471        H      tau( 471) = (  -1.7354153  -2.2727977   4.0668184  )
       472        H      tau( 472) = (  -1.7828255  -2.3035842   3.9819724  )
       473        O      tau( 473) = (  -1.8342650  -2.0056363   4.2642914  )
       474        H      tau( 474) = (  -1.8344957  -1.9429624   4.2349184  )
       475        H      tau( 475) = (  -1.8493337  -1.9948754   4.3299061  )
       476        O      tau( 476) = (  -1.9198601  -1.4243069   4.0461677  )
       477        H      tau( 477) = (  -1.8650698  -1.4579000   4.0265356  )
       478        H      tau( 478) = (  -1.9589174  -1.4636296   4.0856490  )
       479        O      tau( 479) = (  -1.3494322  -1.4566227   3.8236189  )
       480        H      tau( 480) = (  -1.4099194  -1.4942304   3.8284002  )
       481        H      tau( 481) = (  -1.3703147  -1.3917362   3.8301926  )
       482        O      tau( 482) = (  -2.1064420  -1.8575663   4.2152585  )
       483        H      tau( 483) = (  -2.1065707  -1.7924462   4.2299088  )
       484        H      tau( 484) = (  -2.0632388  -1.8631238   4.1632978  )
       485        O      tau( 485) = (  -1.7955363  -2.2618419   4.1982370  )
       486        H      tau( 486) = (  -1.7422509  -2.2754916   4.2388037  )
       487        H      tau( 487) = (  -1.8425083  -2.3084500   4.2157818  )
       488        O      tau( 488) = (  -1.5861034  -2.1164191   3.7735173  )
       489        H      tau( 489) = (  -1.6030657  -2.1005663   3.8367607  )
       490        H      tau( 490) = (  -1.6357895  -2.0911196   3.7350546  )
       491        O      tau( 491) = (  -1.1582390  -1.3707724   4.0311779  )
       492        H      tau( 492) = (  -1.1615667  -1.4289557   3.9966617  )
       493        H      tau( 493) = (  -1.1075257  -1.3789734   4.0787580  )

     number of k points=     1
                       cart. coord. in units 2pi/alat
        k(    1) = (   0.0000000   0.0000000   0.0000000), wk =   2.0000000

     Dense  grid:  3184389 G-vectors     FFT dimensions: ( 192, 200, 480)

     Estimated max dynamical RAM per process >     493.86 MB

     Estimated total dynamical RAM >      57.87 GB

     WARNING: libxc functional with ID  263 depends
      on external parameters: check the user_guide of
      QE if you need to modify them or to check their
      default values.

     Initial potential from superposition of free atoms

     starting charge    2103.6163, renormalised to    2104.0000
     Starting wfcs are 1530 randomized atomic wfcs

     total cpu time spent up to now is       34.3 secs

     Self-consistent Calculation

     iteration #  1     ecut=   110.00 Ry     beta= 0.50
     Davidson diagonalization with overlap
     ethr =  1.00E-02,  avg # of iterations =  2.0

     total cpu time spent up to now is      110.6 secs

     total energy              =  -11162.53557727 Ry
     estimated scf accuracy    <    4090.03137215 Ry

     iteration #  2     ecut=   110.00 Ry     beta= 0.50
     Davidson diagonalization with overlap
     ethr =  1.00E-02,  avg # of iterations =  2.0

     total cpu time spent up to now is      176.0 secs

     total energy              =  -11182.11994432 Ry
     estimated scf accuracy    <     541.12281739 Ry

     iteration #  3     ecut=   110.00 Ry     beta= 0.50
     Davidson diagonalization with overlap
     ethr =  1.00E-02,  avg # of iterations =  1.0

     total cpu time spent up to now is      229.1 secs

     total energy              =  -11183.73464875 Ry
     estimated scf accuracy    <      50.51410135 Ry

     iteration #  4     ecut=   110.00 Ry     beta= 0.50
     Davidson diagonalization with overlap
     ethr =  2.40E-03,  avg # of iterations =  1.0

     total cpu time spent up to now is      282.3 secs

     total energy              =  -11183.87662159 Ry
     estimated scf accuracy    <       0.86402750 Ry

     iteration #  5     ecut=   110.00 Ry     beta= 0.50
     Davidson diagonalization with overlap
     ethr =  4.11E-05,  avg # of iterations =  2.0

     total cpu time spent up to now is      337.7 secs

     total energy              =  -11183.91374300 Ry
     estimated scf accuracy    <       0.03499288 Ry

     iteration #  6     ecut=   110.00 Ry     beta= 0.50
     Davidson diagonalization with overlap
     ethr =  1.66E-06,  avg # of iterations =  3.0

     total cpu time spent up to now is      408.5 secs

     total energy              =  -11183.92020354 Ry
     estimated scf accuracy    <       0.00566147 Ry

     iteration #  7     ecut=   110.00 Ry     beta= 0.50
     Davidson diagonalization with overlap
     ethr =  2.69E-07,  avg # of iterations =  3.0

     total cpu time spent up to now is      474.8 secs

     total energy              =  -11183.92086474 Ry
     estimated scf accuracy    <       0.00239122 Ry

     iteration #  8     ecut=   110.00 Ry     beta= 0.50
     Davidson diagonalization with overlap
     ethr =  1.14E-07,  avg # of iterations =  2.0

     total cpu time spent up to now is      537.1 secs

     total energy              =  -11183.92106965 Ry
     estimated scf accuracy    <       0.00058361 Ry

     iteration #  9     ecut=   110.00 Ry     beta= 0.50
     Davidson diagonalization with overlap
     ethr =  2.77E-08,  avg # of iterations =  2.0

     total cpu time spent up to now is      598.3 secs

     total energy              =  -11183.92111364 Ry
     estimated scf accuracy    <       0.00008634 Ry

     iteration # 10     ecut=   110.00 Ry     beta= 0.50
     Davidson diagonalization with overlap
     ethr =  4.10E-09,  avg # of iterations =  2.0

     total cpu time spent up to now is      655.8 secs

     total energy              =  -11183.92111965 Ry
     estimated scf accuracy    <       0.00000688 Ry

     iteration # 11     ecut=   110.00 Ry     beta= 0.50
     Davidson diagonalization with overlap
     ethr =  3.27E-10,  avg # of iterations =  4.0

     total cpu time spent up to now is      737.8 secs

     total energy              =  -11183.92112168 Ry
     estimated scf accuracy    <       0.00000405 Ry

     iteration # 12     ecut=   110.00 Ry     beta= 0.50
     Davidson diagonalization with overlap
     ethr =  1.92E-10,  avg # of iterations =  1.0

     total cpu time spent up to now is      790.8 secs

     End of self-consistent calculation

          k = 0.0000 0.0000 0.0000 (398025 PWs)   bands (ev):

  -103.8266-103.8060-103.7618-103.7539-103.7059-103.6102-103.5929-103.5422
  -103.5232-103.4952-103.4554-103.2774-103.2093-103.2013-103.1572-102.8267
   -63.3849 -63.3787 -63.3465 -63.3436 -63.3348 -63.3259 -63.3033 -63.3026
   -63.2892 -63.2889 -63.2888 -63.2576 -63.2573 -63.2448 -63.1906 -63.1844
   -63.1674 -63.1492 -63.1326 -63.1203 -63.1187 -63.1164 -63.1126 -63.0989
   -63.0754 -63.0398 -63.0397 -63.0305 -63.0237 -63.0213 -63.0119 -62.9863
   -62.9817 -62.9168 -62.8283 -62.8005 -62.7988 -62.7830 -62.7687 -62.7672
   -62.7595 -62.7535 -62.7267 -62.7189 -62.6855 -62.4473 -62.4304 -62.4125
   -29.1352 -29.0552 -28.9861 -28.8951 -28.8653 -28.8473 -28.7955 -28.7474
   -28.7150 -28.6813 -28.6790 -28.6432 -28.6386 -28.6252 -28.4633 -28.3328
   -21.7403 -21.4475 -21.3873 -21.2750 -21.2716 -21.2031 -21.1874 -21.0113
   -21.0047 -20.9581 -20.9503 -20.9288 -20.8121 -20.7699 -20.7477 -20.7436
   -20.7274 -20.7170 -20.7046 -20.6944 -20.6916 -20.6695 -20.6574 -20.6534
   -20.6469 -20.6221 -20.5987 -20.5913 -20.5858 -20.5579 -20.5523 -20.5357
   -20.5334 -20.5134 -20.4963 -20.4821 -20.4571 -20.4426 -20.4158 -20.3960
   -20.3823 -20.3775 -20.3751 -20.3740 -20.3648 -20.3348 -20.3192 -20.3093
   -20.2923 -20.2892 -20.2355 -20.2077 -20.2013 -20.1943 -20.1859 -20.1745
   -20.1650 -20.1574 -20.1465 -20.1446 -20.0909 -20.0870 -20.0839 -20.0668
   -20.0481 -20.0287 -20.0198 -19.9992 -19.9889 -19.9575 -19.9519 -19.9401
   -19.9368 -19.9305 -19.9151 -19.9067 -19.8827 -19.8761 -19.8481 -19.8456
   -19.8232 -19.8165 -19.8087 -19.8073 -19.8044 -19.7967 -19.7877 -19.7840
   -19.7777 -19.7657 -19.7496 -19.7363 -19.7268 -19.7150 -19.7078 -19.7003
   -19.6992 -19.6905 -19.6727 -19.6714 -19.6576 -19.6539 -19.6469 -19.6284
   -19.6200 -19.6196 -19.6083 -19.5878 -19.5850 -19.5738 -19.5659 -19.5612
   -19.5430 -19.5332 -19.5294 -19.5060 -19.4970 -19.4890 -19.4811 -19.4710
   -19.4708 -19.4656 -19.4625 -19.4516 -19.4322 -19.4270 -19.4174 -19.4081
   -19.3982 -19.3924 -19.3846 -19.3523 -19.3436 -19.3417 -19.3317 -19.3263
   -19.3085 -19.3065 -19.2973 -19.2902 -19.2840 -19.2778 -19.2674 -19.2469
   -19.2431 -19.2227 -19.2128 -19.2035 -19.2007 -19.1900 -19.1703 -19.1508
   -19.1466 -19.1285 -19.1174 -19.1063 -19.1001 -19.0983 -19.0903 -19.0777
   -19.0719 -19.0586 -19.0158 -19.0104 -18.9946 -18.9725 -18.9668 -18.9600
   -18.9506 -18.9245 -18.9154 -18.9015 -18.9002 -18.8968 -18.8918 -18.8754
   -18.8543 -18.8349 -18.8181 -18.8020 -18.8001 -18.7875 -18.7651 -18.7565
   -18.7500 -18.7183 -18.7148 -18.6639 -18.6545 -18.6509 -18.6417 -18.6288
   -18.5989 -18.5858 -18.5741 -18.5562 -18.5482 -18.5443 -18.5359 -18.5324
   -18.5284 -18.5234 -18.5201 -18.5104 -18.5018 -18.4289 -18.4207 -18.4039
   -18.3990 -18.3876 -18.3746 -18.3724 -18.3314 -18.3241 -18.3113 -18.2938
   -18.2823 -18.2727 -18.2542 -18.2492 -18.2425 -18.2336 -18.1703 -18.1643
   -18.0302 -18.0178 -17.9836 -17.9781 -17.9761 -17.9466 -17.9184 -11.7085
   -11.6713 -11.6475 -11.6178 -11.6099 -11.5773 -11.5593 -11.5375 -11.4858
   -11.4692 -11.4586 -11.4561 -11.4162 -11.4029 -11.3900 -11.3895 -11.3807
   -11.3604 -11.3550 -11.3418 -11.3327 -11.3106 -11.3081 -11.2991 -11.2986
   -11.2831 -11.2729 -11.2510 -11.2453 -11.2339 -11.2335 -11.2301 -11.2157
   -11.2154 -11.2085 -11.1916 -11.1896 -11.1880 -11.1844 -11.1728 -11.1528
   -11.1353 -11.0546 -11.0198 -10.9813 -10.9493 -10.8824 -10.8457  -9.6317
    -9.4849  -9.4687  -9.4104  -9.3155  -9.1744  -9.0213  -8.9738  -8.9354
    -8.8755  -8.8603  -8.8129  -8.7658  -8.6904  -8.6741  -8.6363  -8.5681
    -8.4278  -8.4040  -8.3557  -8.2461  -8.2237  -8.1867  -8.1526  -8.1443
    -8.1379  -8.0847  -8.0736  -8.0549  -7.9875  -7.9511  -7.9359  -7.9280
    -7.8742  -7.7688  -7.7444  -7.6868  -7.5867  -7.5392  -7.5279  -7.4985
    -7.4312  -7.4030  -7.3814  -7.3690  -7.3552  -7.3496  -7.3327  -7.3265
    -7.3178  -7.2966  -7.2649  -7.2540  -7.2348  -7.2284  -7.1929  -7.1786
    -7.1710  -7.1339  -7.1150  -7.0733  -7.0703  -7.0408  -7.0351  -7.0123
    -7.0000  -6.9848  -6.9788  -6.9698  -6.9583  -6.9523  -6.9374  -6.9242
    -6.9202  -6.9038  -6.8753  -6.8538  -6.8354  -6.8336  -6.8253  -6.8128
    -6.8084  -6.7899  -6.7751  -6.7680  -6.7333  -6.7086  -6.7037  -6.6784
    -6.6734  -6.6514  -6.6465  -6.6338  -6.6185  -6.6140  -6.6067  -6.6042
    -6.5591  -6.5525  -6.5307  -6.5029  -6.4951  -6.4843  -6.4668  -6.4375
    -6.4289  -6.4212  -6.4152  -6.3993  -6.3800  -6.3753  -6.3673  -6.3535
    -6.3471  -6.3335  -6.3282  -6.3211  -6.3079  -6.2872  -6.2830  -6.2660
    -6.2621  -6.2579  -6.2463  -6.2335  -6.2263  -6.1918  -6.1878  -6.1816
    -6.1750  -6.1692  -6.1460  -6.1428  -6.1261  -6.1142  -6.1063  -6.0901
    -6.0893  -6.0725  -6.0631  -6.0546  -6.0151  -6.0073  -6.0016  -5.9951
    -5.9788  -5.9713  -5.9620  -5.9532  -5.9447  -5.9350  -5.9217  -5.9140
    -5.8946  -5.8841  -5.8560  -5.8530  -5.8373  -5.8278  -5.7964  -5.7788
    -5.7719  -5.7544  -5.7378  -5.7148  -5.6809  -5.6788  -5.6581  -5.6434
    -5.5984  -5.5935  -5.5543  -5.5492  -5.5229  -5.5131  -5.4984  -5.4573
    -5.4552  -5.4414  -5.4184  -5.3917  -5.3113  -5.2992  -5.2756  -5.2402
    -5.2132  -5.1316  -5.1243  -5.1105  -5.0882  -5.0651  -5.0319  -5.0155
    -5.0044  -4.9944  -4.9579  -4.9366  -4.9318  -4.9268  -4.9101  -4.8798
    -4.8656  -4.8555  -4.8416  -4.8365  -4.7765  -4.7354  -4.7165  -4.7119
    -4.7041  -4.6970  -4.6868  -4.6720  -4.6586  -4.6460  -4.5985  -4.5774
    -4.5527  -4.5160  -4.4899  -4.4626  -4.4542  -4.4323  -4.4177  -4.4114
    -4.3919  -4.3881  -4.3705  -4.3596  -4.3131  -4.2943  -4.2841  -4.2811
    -4.2502  -4.2351  -4.2322  -4.2250  -4.1923  -4.1797  -4.1618  -4.1540
    -4.1161  -4.1152  -4.0945  -4.0654  -4.0567  -4.0423  -4.0314  -4.0157
    -3.9887  -3.9791  -3.9712  -3.9606  -3.9456  -3.9265  -3.9131  -3.9006
    -3.8919  -3.8716  -3.8519  -3.8494  -3.8334  -3.7966  -3.7859  -3.7653
    -3.7589  -3.7566  -3.7326  -3.7301  -3.7231  -3.7058  -3.6931  -3.6813
    -3.6790  -3.6749  -3.6534  -3.6499  -3.6347  -3.6239  -3.6150  -3.6067
    -3.5864  -3.5793  -3.5695  -3.5654  -3.5518  -3.5473  -3.5314  -3.5182
    -3.5064  -3.4939  -3.4791  -3.4677  -3.4581  -3.4466  -3.4442  -3.4325
    -3.4181  -3.4029  -3.3853  -3.3608  -3.3556  -3.3424  -3.3320  -3.3284
    -3.3214  -3.2997  -3.2908  -3.2779  -3.2730  -3.2636  -3.2543  -3.2435
    -3.2330  -3.2177  -3.2151  -3.2085  -3.2019  -3.1994  -3.1838  -3.1704
    -3.1592  -3.1542  -3.1482  -3.1407  -3.1274  -3.1233  -3.1216  -3.1154
    -3.0957  -3.0818  -3.0786  -3.0734  -3.0541  -3.0498  -3.0443  -3.0387
    -3.0214  -3.0190  -3.0094  -2.9924  -2.9884  -2.9775  -2.9742  -2.9712
    -2.9579  -2.9491  -2.9405  -2.9367  -2.9256  -2.9118  -2.9011  -2.8959
    -2.8946  -2.8874  -2.8747  -2.8703  -2.8680  -2.8528  -2.8504  -2.8430
    -2.8361  -2.8170  -2.8126  -2.7964  -2.7954  -2.7867  -2.7806  -2.7726
    -2.7702  -2.7616  -2.7429  -2.7381  -2.7362  -2.7230  -2.7076  -2.7047
    -2.7036  -2.6949  -2.6883  -2.6815  -2.6759  -2.6712  -2.6644  -2.6577
    -2.6518  -2.6493  -2.6397  -2.6331  -2.6257  -2.6131  -2.6001  -2.5937
    -2.5822  -2.5749  -2.5529  -2.5469  -2.5428  -2.5391  -2.5202  -2.5137
    -2.5040  -2.5025  -2.4882  -2.4692  -2.4659  -2.4554  -2.4498  -2.4446
    -2.4303  -2.4183  -2.4101  -2.3979  -2.3860  -2.3816  -2.3680  -2.3651
    -2.3547  -2.3488  -2.3283  -2.3134  -2.3108  -2.3066  -2.3016  -2.2848
    -2.2760  -2.2621  -2.2528  -2.2463  -2.2396  -2.2266  -2.2192  -2.2031
    -2.1859  -2.1720  -2.1646  -2.1490  -2.1464  -2.1297  -2.1217  -2.1189
    -2.1068  -2.0989  -2.0831  -2.0724  -2.0689  -2.0645  -2.0597  -2.0525
    -2.0451  -2.0390  -2.0359  -2.0274  -2.0258  -2.0188  -1.9973  -1.9959
    -1.9849  -1.9779  -1.9697  -1.9566  -1.9541  -1.9445  -1.9410  -1.9298
    -1.9225  -1.9120  -1.9075  -1.8955  -1.8837  -1.8754  -1.8748  -1.8648
    -1.8613  -1.8525  -1.8424  -1.8361  -1.8193  -1.8155  -1.8118  -1.8043
    -1.8011  -1.7878  -1.7851  -1.7761  -1.7708  -1.7562  -1.7541  -1.7354
    -1.7302  -1.7172  -1.7165  -1.7051  -1.6920  -1.6858  -1.6768  -1.6758
    -1.6657  -1.6564  -1.6492  -1.6413  -1.6309  -1.6179  -1.6162  -1.6099
    -1.6046  -1.5918  -1.5835  -1.5744  -1.5690  -1.5560  -1.5405  -1.5358
    -1.5294  -1.5219  -1.5122  -1.5067  -1.5006  -1.4928  -1.4870  -1.4812
    -1.4772  -1.4717  -1.4639  -1.4564  -1.4463  -1.4397  -1.4296  -1.4273
    -1.4075  -1.4020  -1.3932  -1.3823  -1.3707  -1.3674  -1.3572  -1.3552
    -1.3427  -1.3353  -1.3311  -1.3242  -1.3130  -1.3068  -1.3064  -1.3019
    -1.2994  -1.2926  -1.2844  -1.2813  -1.2713  -1.2659  -1.2583  -1.2549
    -1.2504  -1.2439  -1.2415  -1.2406  -1.2383  -1.2309  -1.2165  -1.2131
    -1.2040  -1.1946  -1.1802  -1.1742  -1.1716  -1.1674  -1.1637  -1.1614
    -1.1574  -1.1499  -1.1470  -1.1350  -1.1324  -1.1213  -1.1095  -1.1072
    -1.1041  -1.0933  -1.0808  -1.0748  -1.0729  -1.0693  -1.0585  -1.0469
    -1.0362  -1.0330  -1.0217  -1.0191  -1.0125  -1.0068  -1.0002  -0.9914
    -0.9893  -0.9786  -0.9757  -0.9682  -0.9571  -0.9557  -0.9358  -0.9311
    -0.9279  -0.9203  -0.9185  -0.9111  -0.9086  -0.8995  -0.8914  -0.8881
    -0.8728  -0.8711  -0.8628  -0.8559  -0.8488  -0.8347  -0.8190  -0.8138
    -0.8045  -0.7983  -0.7905  -0.7867  -0.7805  -0.7758  -0.7753  -0.7625
    -0.7532  -0.7461  -0.7387  -0.7322  -0.7304  -0.7220  -0.7160  -0.7087
    -0.7071  -0.6982  -0.6919  -0.6849  -0.6737  -0.6709  -0.6613  -0.6564
    -0.6474  -0.6425  -0.6323  -0.6296  -0.6219  -0.6100  -0.6086  -0.6006
    -0.5890  -0.5811  -0.5763  -0.5740  -0.5646  -0.5576  -0.5563  -0.5468
    -0.5442  -0.5344  -0.5324  -0.5212  -0.5139  -0.5078  -0.5006  -0.4921
    -0.4874  -0.4816  -0.4616  -0.4550  -0.4404  -0.4338  -0.4216  -0.4096
    -0.3984  -0.3830  -0.3785  -0.3712  -0.3556  -0.3512  -0.3455  -0.3399
    -0.3296  -0.3068  -0.2888  -0.2783  -0.2463  -0.1899  -0.1410  -0.1248
    -0.1184  -0.0920   0.0532   0.4860

     highest occupied level (ev):     0.4860

!    total energy              =  -11183.92112177 Ry
     estimated scf accuracy    <       0.00000061 Ry

     The total energy is the sum of the following terms:
     one-electron contribution =  -19795.66091822 Ry
     hartree contribution      =   10545.16892963 Ry
     xc contribution           =   -2313.60986585 Ry
     ewald contribution        =     380.18073267 Ry

     convergence has been achieved in  12 iterations

     Forces acting on atoms (cartesian axes, Ry/au):

     atom    1 type  1   force =     0.00191392   -0.00365757    0.00410195
     atom    2 type  2   force =    -0.02647005   -0.02485905    0.01624269
     atom    3 type  3   force =     0.04157609    0.04234433   -0.03703028
     atom    4 type  3   force =     0.00007991   -0.09736424    0.05021382
     atom    5 type  3   force =     0.02017574   -0.01926033    0.04428309
     atom    6 type  3   force =    -0.02977285   -0.03695106    0.04262356
     atom    7 type  3   force =     0.03399855    0.00943290    0.04025002
     atom    8 type  3   force =    -0.00406411   -0.02712313   -0.01532507
     atom    9 type  4   force =    -0.00174072    0.03523966    0.01545910
     atom   10 type  4   force =    -0.01007413    0.02376575    0.02853071
     atom   11 type  4   force =     0.03407535    0.01726283   -0.00817757
     atom   12 type  4   force =     0.03844225   -0.01148925   -0.02660617
     atom   13 type  4   force =     0.01645480   -0.02656192   -0.00650445
     atom   14 type  4   force =    -0.01324252    0.01847615   -0.00689103
     atom   15 type  4   force =     0.00278207    0.01974857    0.00372835
     atom   16 type  4   force =     0.00080461    0.04401480   -0.02666482
     atom   17 type  4   force =    -0.01822334    0.05767391   -0.00273506
     atom   18 type  4   force =    -0.00584615    0.06685860   -0.00669565
     atom   19 type  4   force =     0.01067064    0.00422054   -0.00556561
     atom   20 type  4   force =     0.01006300    0.01501805   -0.01134128
     atom   21 type  4   force =    -0.06483602   -0.00743098   -0.02177867
     atom   22 type  4   force =    -0.02763762    0.00786512   -0.01925765
     atom   23 type  2   force =    -0.03584256   -0.06203269    0.01082963
     atom   24 type  3   force =    -0.04526980   -0.02649757    0.00657807
     atom   25 type  3   force =     0.02681088   -0.01265131   -0.05259162
     atom   26 type  4   force =     0.00960777   -0.04557479    0.00039405
     atom   27 type  4   force =     0.03531832   -0.03301268   -0.04087969
     atom   28 type  4   force =     0.01652090    0.03643679   -0.00331083
     atom   29 type  4   force =     0.05083804    0.00386615   -0.01898747
     atom   30 type  4   force =    -0.06265498   -0.01095779    0.09303558
     atom   31 type  4   force =     0.01329588    0.03069438    0.01028971
     atom   32 type  4   force =    -0.00413119    0.00181984    0.02975690
     atom   33 type  4   force =     0.01915406   -0.00647370   -0.01253193
     atom   34 type  4   force =    -0.00352701    0.03475880    0.00411441
     atom   35 type  4   force =     0.03750222   -0.04440875   -0.02852611
     atom   36 type  2   force =    -0.03724169    0.03871564   -0.00389356
     atom   37 type  3   force =    -0.04910327   -0.03946999    0.05461147
     atom   38 type  3   force =     0.03308898   -0.02847641    0.02525741
     atom   39 type  4   force =     0.10858566   -0.04713175    0.00473037
     atom   40 type  4   force =     0.02994753   -0.06821437    0.00190946
     atom   41 type  4   force =     0.02101019    0.02976507   -0.03230569
     atom   42 type  4   force =     0.07623708    0.07941530   -0.02059618
     atom   43 type  4   force =     0.03489242   -0.00115620   -0.00139234
     atom   44 type  4   force =    -0.03234883    0.00205193   -0.05252695
     atom   45 type  4   force =     0.02099796   -0.00161489    0.00828288
     atom   46 type  4   force =    -0.07108512    0.01342853   -0.00938572
     atom   47 type  1   force =    -0.00493178   -0.00889384   -0.00023922
     atom   48 type  1   force =     0.00308100    0.00589617    0.00940310
     atom   49 type  1   force =    -0.00662522    0.02955432   -0.02836866
     atom   50 type  2   force =    -0.09451523    0.08184044    0.02176405
     atom   51 type  3   force =     0.05658646    0.02348392   -0.03220242
     atom   52 type  3   force =     0.00290290    0.02872317    0.04143685
     atom   53 type  3   force =    -0.00022765    0.01030067    0.02540825
     atom   54 type  3   force =     0.02559033    0.05319994    0.06391281
     atom   55 type  3   force =     0.02230361    0.01679213    0.13425441
     atom   56 type  3   force =    -0.01037527    0.00331566   -0.04389994
     atom   57 type  4   force =    -0.00429619    0.02582129   -0.00416548
     atom   58 type  4   force =    -0.02096753   -0.03195973   -0.04087293
     atom   59 type  4   force =    -0.00193566   -0.02734504    0.01517141
     atom   60 type  4   force =    -0.01685886   -0.04460482   -0.05376567
     atom   61 type  4   force =    -0.02987732   -0.00386309    0.05581819
     atom   62 type  4   force =     0.02210566   -0.00568989   -0.04418098
     atom   63 type  4   force =    -0.04039215   -0.01320494   -0.01418988
     atom   64 type  4   force =    -0.01272007   -0.01224205    0.04364293
     atom   65 type  4   force =    -0.02562013    0.04307067    0.01051256
     atom   66 type  4   force =    -0.02637406   -0.00738000   -0.08587809
     atom   67 type  4   force =     0.00566497   -0.06111540    0.00637441
     atom   68 type  4   force =     0.00810502   -0.02637398   -0.00177283
     atom   69 type  4   force =    -0.00098672   -0.00558551   -0.02984920
     atom   70 type  4   force =     0.03335968   -0.07275669    0.05986415
     atom   71 type  4   force =    -0.00772248    0.01659173    0.00038878
     atom   72 type  4   force =    -0.02350351    0.02112438   -0.03241850
     atom   73 type  1   force =    -0.00105236   -0.00777930   -0.00590768
     atom   74 type  2   force =     0.00924677   -0.01591955    0.02136632
     atom   75 type  2   force =     0.02847038    0.01935188    0.04293079
     atom   76 type  3   force =    -0.07787445    0.02097583    0.00466547
     atom   77 type  3   force =     0.02493340   -0.03055476    0.02583752
     atom   78 type  3   force =    -0.02998175    0.00738765    0.00947840
     atom   79 type  3   force =     0.03471739    0.02472715   -0.01399765
     atom   80 type  3   force =    -0.03167322   -0.06214583    0.01921779
     atom   81 type  3   force =     0.06894046    0.00758664    0.04012623
     atom   82 type  4   force =     0.02994157   -0.02784085    0.01341117
     atom   83 type  4   force =     0.04416434    0.00994032   -0.01076004
     atom   84 type  4   force =     0.02340137   -0.05218467    0.02502799
     atom   85 type  4   force =     0.01402392   -0.01461167   -0.01791979
     atom   86 type  4   force =    -0.00492559    0.00655692   -0.02090649
     atom   87 type  4   force =    -0.00527392    0.01389690    0.01225642
     atom   88 type  4   force =    -0.03067467   -0.00200000    0.01986457
     atom   89 type  4   force =    -0.01440316   -0.02107765   -0.08622016
     atom   90 type  4   force =     0.00695411    0.00170889   -0.06006801
     atom   91 type  4   force =     0.01269287    0.02305357    0.01102172
     atom   92 type  4   force =    -0.00180333    0.02987365   -0.00289767
     atom   93 type  4   force =     0.01321887    0.03589060   -0.00020718
     atom   94 type  4   force =    -0.06069816   -0.01273851    0.00930376
     atom   95 type  4   force =    -0.00749204   -0.00186838   -0.01785004
     atom   96 type  4   force =    -0.04965641    0.01621285   -0.03299489
     atom   97 type  1   force =     0.00385081   -0.00983319    0.00570263
     atom   98 type  1   force =    -0.00782872    0.00825103    0.00347499
     atom   99 type  1   force =    -0.00203342    0.00187123    0.00822897
     atom  100 type  2   force =     0.03222617    0.02311178   -0.00111719
     atom  101 type  2   force =     0.04085085    0.01236490    0.02327736
     atom  102 type  3   force =    -0.03392942    0.06697483   -0.01815172
     atom  103 type  3   force =     0.01686897   -0.00936495   -0.02499331
     atom  104 type  3   force =     0.01085496    0.03731445    0.01959511
     atom  105 type  3   force =     0.01260275    0.01430399   -0.02064231
     atom  106 type  3   force =    -0.03538517    0.02833450   -0.02276299
     atom  107 type  3   force =    -0.03779671   -0.00917112    0.03705340
     atom  108 type  4   force =    -0.01305037    0.04580305    0.01922691
     atom  109 type  4   force =    -0.02569777   -0.00879919   -0.00971749
     atom  110 type  4   force =     0.00001449   -0.02983865    0.00291448
     atom  111 type  4   force =    -0.00921321    0.01626486   -0.03322750
     atom  112 type  4   force =    -0.01081559   -0.02155974   -0.01387033
     atom  113 type  4   force =     0.02388919    0.02115281   -0.02877123
     atom  114 type  4   force =    -0.02990411    0.00011219    0.02638255
     atom  115 type  4   force =     0.02819734    0.00194666    0.00315787
     atom  116 type  4   force =    -0.02220402   -0.01902439    0.00598626
     atom  117 type  4   force =    -0.02096886   -0.03470338   -0.07644359
     atom  118 type  4   force =    -0.01971919   -0.00751117    0.02932395
     atom  119 type  4   force =    -0.03291364   -0.00005590    0.01106741
     atom  120 type  4   force =    -0.02271125    0.04580096    0.01964385
     atom  121 type  4   force =    -0.04659327    0.01915573   -0.00522720
     atom  122 type  4   force =     0.07627316   -0.06334621   -0.00552415
     atom  123 type  4   force =     0.02365080   -0.00998705    0.03787136
     atom  124 type  4   force =    -0.00029223   -0.00847141    0.03842016
     atom  125 type  5   force =    -0.01351698    0.00455046   -0.02764743
     atom  126 type  5   force =    -0.06180190   -0.01836702   -0.00027713
     atom  127 type  5   force =     0.03431243   -0.01352029   -0.00436534
     atom  128 type  5   force =    -0.05789004   -0.00863058    0.02067302
     atom  129 type  5   force =    -0.02621328    0.00356878    0.05489790
     atom  130 type  5   force =     0.04462028    0.04995455   -0.01177664
     atom  131 type  5   force =     0.02200891   -0.02079341   -0.03190161
     atom  132 type  5   force =    -0.03373754    0.01577945    0.02741200
     atom  133 type  5   force =    -0.01728322   -0.00229117   -0.00560009
     atom  134 type  5   force =    -0.00374165    0.00689833    0.01585849
     atom  135 type  5   force =    -0.01532082   -0.01292876   -0.00560347
     atom  136 type  5   force =    -0.04214826    0.02049873    0.03452946
     atom  137 type  5   force =     0.03313757    0.12490057    0.03623267
     atom  138 type  5   force =    -0.00174264   -0.00326001    0.00281601
     atom  139 type  5   force =     0.00042521   -0.02297509   -0.01460680
     atom  140 type  5   force =     0.05185878   -0.03248847   -0.02032418
     atom  141 type  1   force =    -0.00073025    0.00051511   -0.00410991
     atom  142 type  2   force =     0.02723434   -0.03420583   -0.03252587
     atom  143 type  3   force =    -0.09383846   -0.01534381   -0.00663823
     atom  144 type  3   force =     0.01431626    0.01778598   -0.00786525
     atom  145 type  3   force =    -0.05354357    0.00658463    0.07625262
     atom  146 type  3   force =     0.02803651   -0.01401890   -0.08968740
     atom  147 type  3   force =    -0.01952120    0.02078776    0.04018786
     atom  148 type  3   force =     0.00454960    0.00828911    0.08125359
     atom  149 type  4   force =    -0.02960188   -0.01085264   -0.01765773
     atom  150 type  4   force =    -0.01673015   -0.00002833   -0.05875572
     atom  151 type  4   force =    -0.02280340   -0.01358788    0.02175243
     atom  152 type  4   force =    -0.03061231    0.00432857    0.04080072
     atom  153 type  4   force =     0.01788086   -0.06447110    0.02232489
     atom  154 type  4   force =     0.02481605   -0.00958426   -0.01166528
     atom  155 type  4   force =     0.00426545   -0.00312321   -0.00517189
     atom  156 type  4   force =     0.00173408   -0.02437868   -0.04134605
     atom  157 type  4   force =     0.00018320   -0.02854986   -0.00193401
     atom  158 type  4   force =     0.01299672    0.04447105   -0.01649383
     atom  159 type  4   force =    -0.01053796    0.00670472    0.00643310
     atom  160 type  4   force =    -0.02910057    0.03735702   -0.02927162
     atom  161 type  4   force =     0.04534616   -0.01294899    0.06855524
     atom  162 type  4   force =     0.04917650   -0.00680185    0.03190961
     atom  163 type  2   force =     0.02550711    0.04291729   -0.01716393
     atom  164 type  3   force =    -0.04075314   -0.04532828   -0.00768009
     atom  165 type  3   force =     0.04064140   -0.05856079    0.00503813
     atom  166 type  4   force =    -0.01573351    0.00781790    0.02013370
     atom  167 type  4   force =    -0.01330482    0.01856388    0.03147032
     atom  168 type  4   force =     0.00607659    0.01045857    0.08462537
     atom  169 type  4   force =     0.02989227   -0.01577989   -0.01045175
     atom  170 type  4   force =     0.05124462    0.04502491   -0.02547949
     atom  171 type  4   force =    -0.02389795   -0.00485164   -0.05323779
     atom  172 type  4   force =    -0.00091234   -0.02517795    0.02215197
     atom  173 type  4   force =     0.03492491   -0.04343162    0.02039043
     atom  174 type  4   force =    -0.03276575    0.01313635    0.02752269
     atom  175 type  4   force =    -0.03944720   -0.12039330   -0.11905036
     atom  176 type  2   force =     0.00766593    0.04891157    0.00745153
     atom  177 type  3   force =     0.02169178   -0.01554429    0.02454405
     atom  178 type  3   force =    -0.00680654    0.07507158   -0.01190158
     atom  179 type  4   force =     0.01258828   -0.01232204    0.00852787
     atom  180 type  4   force =    -0.00076847    0.03800896   -0.00366006
     atom  181 type  4   force =     0.00868378    0.05151800   -0.03385377
     atom  182 type  4   force =    -0.03104844   -0.03002619   -0.00295194
     atom  183 type  4   force =     0.00571282   -0.02448570    0.03824833
     atom  184 type  4   force =     0.00012698    0.01879323   -0.01225053
     atom  185 type  4   force =    -0.04782645    0.03436056   -0.03302624
     atom  186 type  4   force =    -0.03545357    0.00116547    0.00207730
     atom  187 type  1   force =     0.00516615   -0.01298090    0.00793038
     atom  188 type  1   force =    -0.00045797    0.00372354    0.01759216
     atom  189 type  1   force =    -0.01306329   -0.00947988   -0.00378690
     atom  190 type  2   force =    -0.00473576   -0.02484913   -0.03127416
     atom  191 type  3   force =    -0.01433584   -0.01909232    0.02184469
     atom  192 type  3   force =     0.02509791   -0.07021805   -0.01953193
     atom  193 type  3   force =    -0.06374868    0.01357670    0.06854006
     atom  194 type  3   force =     0.04547330    0.06036077   -0.01298846
     atom  195 type  3   force =     0.04643395   -0.00219782    0.00447644
     atom  196 type  3   force =     0.04795218    0.02632731   -0.04091170
     atom  197 type  4   force =     0.00816687    0.00391319    0.01674866
     atom  198 type  4   force =    -0.00236783   -0.08879907   -0.02922343
     atom  199 type  4   force =    -0.00302569   -0.02339556   -0.01322796
     atom  200 type  4   force =     0.02263647   -0.00325154    0.01871634
     atom  201 type  4   force =     0.06184284   -0.01102385   -0.03380882
     atom  202 type  4   force =     0.00023229   -0.01392420   -0.00124145
     atom  203 type  4   force =    -0.04951815   -0.03982591    0.01003730
     atom  204 type  4   force =     0.01715156    0.02112875   -0.00949898
     atom  205 type  4   force =    -0.02261977    0.02557271    0.03805592
     atom  206 type  4   force =    -0.01526282   -0.01509911    0.00575320
     atom  207 type  4   force =    -0.01198071   -0.02040638    0.03585770
     atom  208 type  4   force =     0.02020959    0.00859439    0.00311959
     atom  209 type  4   force =    -0.00935896    0.00852618    0.01893150
     atom  210 type  4   force =     0.01353259    0.01399567    0.01351720
     atom  211 type  4   force =    -0.03876938    0.01599684   -0.03800239
     atom  212 type  4   force =    -0.05002563   -0.01654396   -0.03355900
     atom  213 type  1   force =     0.00114793   -0.00422582    0.00324473
     atom  214 type  2   force =    -0.01452123    0.06610390   -0.06365776
     atom  215 type  2   force =    -0.04251221   -0.02261820   -0.01676018
     atom  216 type  3   force =     0.03837737   -0.04501523    0.01962005
     atom  217 type  3   force =    -0.00249860    0.00625930   -0.08571699
     atom  218 type  3   force =    -0.03929841    0.05165126    0.04966242
     atom  219 type  3   force =    -0.03207744   -0.00440695    0.06886276
     atom  220 type  3   force =     0.01036208   -0.00259971    0.00239833
     atom  221 type  3   force =    -0.00013080    0.04449607   -0.04065589
     atom  222 type  4   force =     0.02727227    0.00638540   -0.01539186
     atom  223 type  4   force =    -0.04717205    0.00107519   -0.02143381
     atom  224 type  4   force =     0.01111388   -0.04084626   -0.02937095
     atom  225 type  4   force =     0.05859133   -0.03302074   -0.04966473
     atom  226 type  4   force =     0.03668777    0.00769959   -0.05838631
     atom  227 type  4   force =     0.06352866    0.04696788   -0.04002423
     atom  228 type  4   force =    -0.03168852   -0.03240938    0.04349793
     atom  229 type  4   force =     0.01114566   -0.00757518   -0.01016247
     atom  230 type  4   force =     0.02133401    0.01463798    0.03993411
     atom  231 type  4   force =    -0.00489977    0.04209968   -0.00521343
     atom  232 type  4   force =    -0.00883162   -0.00468371   -0.00174598
     atom  233 type  4   force =    -0.04228722   -0.01720348    0.01160133
     atom  234 type  4   force =     0.00860094   -0.01988918    0.03538428
     atom  235 type  4   force =     0.00960625   -0.01958338    0.00668785
     atom  236 type  4   force =     0.02788136   -0.00733924    0.04479809
     atom  237 type  1   force =     0.00112516    0.00436275    0.00056570
     atom  238 type  1   force =    -0.01300808    0.00990801   -0.00914504
     atom  239 type  1   force =    -0.00976897   -0.01472854    0.00267888
     atom  240 type  2   force =    -0.03693781    0.01596157   -0.00939958
     atom  241 type  2   force =     0.04598125    0.00202110    0.02513126
     atom  242 type  3   force =    -0.02780443    0.06992864    0.01945885
     atom  243 type  3   force =    -0.03602636    0.02382734    0.07671337
     atom  244 type  3   force =     0.04552023   -0.02193146    0.00844721
     atom  245 type  3   force =    -0.04414576   -0.05888492    0.07718501
     atom  246 type  3   force =     0.04775281    0.01715962    0.06253843
     atom  247 type  3   force =     0.02232019    0.05826136    0.02917881
     atom  248 type  4   force =     0.04733924    0.00752315    0.01406569
     atom  249 type  4   force =     0.02702122   -0.00713095   -0.02703364
     atom  250 type  4   force =     0.02092058   -0.01056905   -0.00209660
     atom  251 type  4   force =    -0.00409561    0.01600741    0.03819008
     atom  252 type  4   force =    -0.02313672   -0.02071323   -0.01495352
     atom  253 type  4   force =    -0.02026682    0.00176446    0.03604273
     atom  254 type  4   force =     0.07237684    0.01625909   -0.05990215
     atom  255 type  4   force =    -0.02525280   -0.00988572   -0.01901072
     atom  256 type  4   force =     0.02648076    0.03574439   -0.00425803
     atom  257 type  4   force =    -0.01830906   -0.02133498   -0.05184228
     atom  258 type  4   force =    -0.01486747   -0.01297332   -0.04546661
     atom  259 type  4   force =     0.04225361    0.01692542   -0.03460155
     atom  260 type  4   force =     0.00443500   -0.06396335   -0.02489407
     atom  261 type  4   force =     0.01179692   -0.00079169   -0.02248706
     atom  262 type  4   force =    -0.03001455   -0.00443822    0.01959527
     atom  263 type  4   force =    -0.02768756    0.00757947   -0.03077261
     atom  264 type  4   force =    -0.02240767    0.02427830   -0.03833844
     atom  265 type  5   force =    -0.02300487    0.00552273    0.03005111
     atom  266 type  5   force =     0.01224760    0.00800262    0.01698267
     atom  267 type  5   force =     0.00243683    0.01070927    0.02425315
     atom  268 type  5   force =     0.02284240    0.01656589   -0.01974112
     atom  269 type  5   force =     0.07763659    0.04487375    0.10285942
     atom  270 type  5   force =     0.02470936    0.01995648   -0.02184579
     atom  271 type  5   force =     0.02346915   -0.03358484   -0.02480832
     atom  272 type  5   force =     0.00472087    0.01217022   -0.00497842
     atom  273 type  5   force =    -0.02492103    0.04003321   -0.01324692
     atom  274 type  5   force =    -0.00294454   -0.01972757   -0.00930808
     atom  275 type  5   force =     0.02326918   -0.00188113   -0.01362213
     atom  276 type  5   force =     0.02184476   -0.00743502   -0.03283646
     atom  277 type  5   force =    -0.00936004    0.00036032   -0.03318168
     atom  278 type  5   force =    -0.03446180   -0.00988357    0.00470582
     atom  279 type  5   force =     0.00168450    0.02076205   -0.01168545
     atom  280 type  5   force =     0.01534608   -0.00079462   -0.01757045
     atom  281 type  4   force =     0.01791319    0.03951294   -0.03323578
     atom  282 type  5   force =     0.00163618   -0.01765329    0.01055398
     atom  283 type  5   force =    -0.01554081   -0.01167088    0.02306694
     atom  284 type  4   force =     0.01726876    0.02821655    0.04055194
     atom  285 type  5   force =     0.00272277    0.00484343   -0.01665500
     atom  286 type  5   force =    -0.01760992   -0.01033614   -0.00677038
     atom  287 type  4   force =     0.01251305   -0.00675959   -0.00923124
     atom  288 type  5   force =    -0.01055244    0.01017585    0.03566719
     atom  289 type  5   force =     0.00187101    0.00406769   -0.01861508
     atom  290 type  4   force =    -0.05291746    0.02137071   -0.01742165
     atom  291 type  5   force =     0.03652682   -0.00567577   -0.00790449
     atom  292 type  5   force =     0.01997253   -0.03634291    0.02156122
     atom  293 type  4   force =    -0.01787101   -0.00646240   -0.03404327
     atom  294 type  5   force =    -0.00310961   -0.00249978    0.01158953
     atom  295 type  5   force =     0.00807545    0.00919744    0.02202861
     atom  296 type  4   force =    -0.02163304   -0.02750540   -0.01516291
     atom  297 type  5   force =     0.00204667   -0.00871713   -0.01065681
     atom  298 type  5   force =     0.01732804    0.02743858    0.01392094
     atom  299 type  4   force =    -0.02656294    0.07063842   -0.01457365
     atom  300 type  5   force =     0.01520691   -0.01693514    0.02277920
     atom  301 type  5   force =     0.01075411   -0.05870995   -0.01710977
     atom  302 type  4   force =    -0.01890834   -0.03620736    0.03049515
     atom  303 type  5   force =    -0.00607597    0.01028998   -0.03870996
     atom  304 type  5   force =     0.03169716    0.02800794    0.01636491
     atom  305 type  4   force =    -0.05872759   -0.01264002    0.01197276
     atom  306 type  5   force =     0.05092885   -0.01493915   -0.02591884
     atom  307 type  5   force =     0.00128198    0.02182828    0.01346688
     atom  308 type  4   force =     0.04513383    0.00655689    0.00095767
     atom  309 type  5   force =     0.00096326    0.01169499    0.00584714
     atom  310 type  5   force =    -0.04939229   -0.03372179   -0.00425560
     atom  311 type  4   force =    -0.01814619    0.01492024    0.07656023
     atom  312 type  5   force =     0.02539660    0.00428497   -0.02739799
     atom  313 type  5   force =    -0.01516381   -0.01860638   -0.02355374
     atom  314 type  4   force =     0.00268430   -0.01786538    0.05584333
     atom  315 type  5   force =     0.01441045    0.01550902   -0.04191534
     atom  316 type  5   force =    -0.02273179   -0.00512654   -0.02444915
     atom  317 type  4   force =    -0.02991060   -0.06510342   -0.02025212
     atom  318 type  5   force =     0.00653674    0.04180724    0.00850798
     atom  319 type  5   force =     0.03243318    0.01019510    0.01091047
     atom  320 type  4   force =     0.01466306   -0.03097300   -0.05024325
     atom  321 type  5   force =     0.02716945    0.01531072    0.05706713
     atom  322 type  5   force =    -0.02992920    0.00279577   -0.01049813
     atom  323 type  4   force =     0.02009398    0.00271812   -0.02054851
     atom  324 type  5   force =    -0.00673290    0.00896409    0.00686966
     atom  325 type  5   force =    -0.00750742    0.00364749   -0.00236813
     atom  326 type  4   force =    -0.06527265    0.01658736   -0.00937226
     atom  327 type  5   force =     0.01483794   -0.00260367   -0.02499550
     atom  328 type  5   force =     0.03218750   -0.02467310    0.01250243
     atom  329 type  4   force =    -0.01587082   -0.03550577   -0.02484540
     atom  330 type  5   force =     0.00391532    0.03736406    0.00015070
     atom  331 type  5   force =     0.00303458   -0.00121844   -0.00820372
     atom  332 type  4   force =     0.02190681   -0.01046427   -0.03832816
     atom  333 type  5   force =    -0.00812303   -0.00991172   -0.03160826
     atom  334 type  5   force =    -0.01041309    0.00707720    0.08386883
     atom  335 type  4   force =    -0.01794380   -0.10238030   -0.04392263
     atom  336 type  5   force =     0.01422282    0.05536499   -0.01437459
     atom  337 type  5   force =     0.00142841    0.04030137    0.07821902
     atom  338 type  4   force =    -0.06105938   -0.01357157   -0.02208498
     atom  339 type  5   force =     0.00826675   -0.02076666    0.03846826
     atom  340 type  5   force =     0.06243288    0.03881428   -0.01530126
     atom  341 type  4   force =    -0.04053508    0.00777754   -0.05197802
     atom  342 type  5   force =     0.03435309   -0.01414521    0.05006893
     atom  343 type  5   force =     0.00796526    0.01724179    0.00270767
     atom  344 type  4   force =     0.08344168    0.00760863   -0.05076307
     atom  345 type  5   force =    -0.08757090   -0.00769828    0.08219039
     atom  346 type  5   force =    -0.00240047   -0.01366345   -0.01497325
     atom  347 type  4   force =     0.01714304   -0.00074222    0.04726708
     atom  348 type  5   force =     0.01217788   -0.00773052   -0.01276384
     atom  349 type  5   force =    -0.02940837    0.00540896   -0.03288335
     atom  350 type  4   force =     0.01309288    0.00789800    0.03055969
     atom  351 type  5   force =    -0.02390771   -0.01131445   -0.01088564
     atom  352 type  5   force =    -0.01078308   -0.01244577   -0.03438532
     atom  353 type  4   force =     0.00006462   -0.02970948   -0.01109420
     atom  354 type  5   force =     0.01723051   -0.00545018    0.02976078
     atom  355 type  5   force =    -0.01434624    0.02166536   -0.01846586
     atom  356 type  4   force =    -0.02842445    0.02344767   -0.03708486
     atom  357 type  5   force =    -0.00747972   -0.01559925   -0.00613674
     atom  358 type  5   force =     0.05012431   -0.00425466    0.05017554
     atom  359 type  4   force =     0.03490391   -0.04406221   -0.05221345
     atom  360 type  5   force =    -0.02213874    0.02685410    0.05382131
     atom  361 type  5   force =    -0.02102149    0.00710862   -0.00755467
     atom  362 type  4   force =    -0.01970851    0.04598100   -0.03784866
     atom  363 type  5   force =    -0.00314726   -0.00407858    0.03024416
     atom  364 type  5   force =     0.03073078   -0.03336129    0.00397500
     atom  365 type  4   force =     0.04663451    0.03986830   -0.00687234
     atom  366 type  5   force =     0.00058637    0.00835125   -0.00908428
     atom  367 type  5   force =    -0.03177270   -0.03742795    0.01327741
     atom  368 type  4   force =     0.04167157    0.01222576    0.02529509
     atom  369 type  5   force =    -0.02876594   -0.04429890   -0.04118868
     atom  370 type  5   force =    -0.02854566    0.02487379    0.02491638
     atom  371 type  4   force =     0.08408303   -0.05748791   -0.04316307
     atom  372 type  5   force =    -0.05030275    0.00031631    0.01109788
     atom  373 type  5   force =    -0.01957451    0.06363552    0.01578215
     atom  374 type  4   force =     0.01695377   -0.01656775   -0.01861286
     atom  375 type  5   force =     0.00222051    0.00613164   -0.00941238
     atom  376 type  5   force =     0.00969207   -0.00425687   -0.00448924
     atom  377 type  4   force =    -0.00523399   -0.02840350   -0.01394446
     atom  378 type  5   force =    -0.01081978    0.02961214    0.00995444
     atom  379 type  5   force =     0.02246161   -0.00003370    0.01324086
     atom  380 type  4   force =    -0.04217715   -0.00743506   -0.03781255
     atom  381 type  5   force =     0.00062693    0.00615539   -0.01039393
     atom  382 type  5   force =     0.03517873    0.02150260    0.03252584
     atom  383 type  4   force =     0.01960685    0.03020310   -0.01892911
     atom  384 type  5   force =    -0.01259550   -0.03240104    0.01223233
     atom  385 type  5   force =    -0.00079159   -0.00335220    0.00053840
     atom  386 type  4   force =    -0.01178361    0.02137222   -0.00876355
     atom  387 type  5   force =     0.01179524    0.01462964   -0.02327173
     atom  388 type  5   force =     0.00142566   -0.04104304    0.01992469
     atom  389 type  4   force =    -0.02291566   -0.03976186   -0.00243507
     atom  390 type  5   force =     0.00417309    0.03618759   -0.01672044
     atom  391 type  5   force =     0.02680756    0.03304961    0.00229439
     atom  392 type  4   force =     0.04157814   -0.03704536    0.05162799
     atom  393 type  5   force =    -0.01398717   -0.01078855   -0.01715946
     atom  394 type  5   force =    -0.03889421    0.04167204   -0.03731352
     atom  395 type  4   force =     0.06298985   -0.01695445   -0.00688905
     atom  396 type  5   force =    -0.06087604    0.03008306   -0.01370188
     atom  397 type  5   force =     0.00795492   -0.01651610    0.01148625
     atom  398 type  4   force =     0.05992722    0.01611269   -0.03859784
     atom  399 type  5   force =    -0.03205317   -0.02282269    0.00191601
     atom  400 type  5   force =    -0.02434862   -0.00492046    0.01257208
     atom  401 type  4   force =    -0.02445143    0.00159174    0.00177481
     atom  402 type  5   force =    -0.00927204   -0.00414795   -0.01627789
     atom  403 type  5   force =     0.02095354    0.02520727    0.01145800
     atom  404 type  4   force =    -0.02161798    0.05503237   -0.03197576
     atom  405 type  5   force =    -0.00217651   -0.06692816   -0.00247456
     atom  406 type  5   force =     0.01230456    0.00221348    0.02240229
     atom  407 type  4   force =     0.01068468   -0.02204039   -0.01420366
     atom  408 type  5   force =    -0.02111902    0.01098497    0.01263301
     atom  409 type  5   force =     0.01052212    0.00511959    0.00977142
     atom  410 type  4   force =     0.02125545   -0.13537750    0.02226529
     atom  411 type  5   force =    -0.03801866    0.07635925   -0.04344127
     atom  412 type  5   force =    -0.05197424   -0.05340306    0.00790958
     atom  413 type  4   force =     0.01852862    0.00745338    0.00716245
     atom  414 type  5   force =    -0.03096331   -0.00447125   -0.00160860
     atom  415 type  5   force =     0.00610206    0.00314454   -0.00544474
     atom  416 type  4   force =     0.02869395    0.03987374   -0.04395080
     atom  417 type  5   force =     0.01297640    0.00402654    0.01286096
     atom  418 type  5   force =    -0.02618001   -0.05047500    0.03942630
     atom  419 type  4   force =    -0.01856879    0.01067181   -0.00059053
     atom  420 type  5   force =     0.05295227   -0.00643827    0.00280775
     atom  421 type  5   force =    -0.01777126   -0.00526913   -0.00733574
     atom  422 type  4   force =     0.03646930    0.02619895   -0.00644921
     atom  423 type  5   force =     0.00522069    0.00915558    0.00937559
     atom  424 type  5   force =    -0.03120513   -0.03237689    0.00112055
     atom  425 type  4   force =    -0.08751141   -0.04533489   -0.00056823
     atom  426 type  5   force =     0.01486586    0.01310216    0.01969733
     atom  427 type  5   force =     0.06018579    0.02737848   -0.01690291
     atom  428 type  4   force =     0.00627201    0.04419505   -0.05887899
     atom  429 type  5   force =     0.01167803   -0.04352878    0.06329827
     atom  430 type  5   force =    -0.01027035    0.01562302   -0.01642543
     atom  431 type  4   force =    -0.02643325   -0.09284234   -0.02782171
     atom  432 type  5   force =    -0.01964846    0.09138609    0.01786405
     atom  433 type  5   force =     0.03085131   -0.01643919    0.01908036
     atom  434 type  4   force =    -0.00522856   -0.00170760    0.03763090
     atom  435 type  5   force =    -0.01173899   -0.00132380   -0.02225782
     atom  436 type  5   force =    -0.00378217    0.01581262   -0.01470347
     atom  437 type  4   force =    -0.02386164   -0.00335935    0.07460394
     atom  438 type  5   force =     0.03910410    0.02962976   -0.03498178
     atom  439 type  5   force =    -0.01928046   -0.02856914   -0.04433943
     atom  440 type  4   force =     0.04817396    0.02282448    0.00131043
     atom  441 type  5   force =     0.00579328    0.01985398   -0.01080306
     atom  442 type  5   force =    -0.02842442   -0.01619116    0.00020640
     atom  443 type  4   force =     0.05118370   -0.02515958    0.01620140
     atom  444 type  5   force =    -0.01202109    0.01174656   -0.01207623
     atom  445 type  5   force =    -0.02876079    0.00810918    0.02574589
     atom  446 type  4   force =    -0.09193354    0.00900433    0.02074029
     atom  447 type  5   force =     0.02562399    0.01516785   -0.01392967
     atom  448 type  5   force =     0.06838803   -0.02052642    0.01270432
     atom  449 type  4   force =     0.00661762   -0.00693227    0.00397171
     atom  450 type  5   force =     0.01053672    0.02082631   -0.00551270
     atom  451 type  5   force =    -0.01243288   -0.00217477    0.00867124
     atom  452 type  4   force =     0.01579670    0.02196011   -0.04684834
     atom  453 type  5   force =    -0.00473998   -0.01666090    0.05205042
     atom  454 type  5   force =    -0.01119107   -0.00412364   -0.00671355
     atom  455 type  4   force =    -0.03544350    0.03744660   -0.01388022
     atom  456 type  5   force =     0.01741587   -0.02933781    0.00502339
     atom  457 type  5   force =     0.00932460   -0.01202992   -0.00668441
     atom  458 type  4   force =    -0.01239790   -0.01086622   -0.00151529
     atom  459 type  5   force =    -0.00564436   -0.00669133   -0.02111907
     atom  460 type  5   force =     0.03618914    0.02349241    0.01527091
     atom  461 type  4   force =    -0.02895826   -0.01833967    0.03879999
     atom  462 type  5   force =     0.00185707    0.01688188   -0.01388570
     atom  463 type  5   force =     0.02295848    0.00393892   -0.02962677
     atom  464 type  4   force =    -0.02685234    0.00432679    0.02810581
     atom  465 type  5   force =     0.00340543   -0.00397261   -0.02216168
     atom  466 type  5   force =     0.00968444   -0.00905149   -0.00237957
     atom  467 type  4   force =    -0.02466084    0.00766347   -0.02336824
     atom  468 type  5   force =    -0.00384890   -0.00032843    0.02450474
     atom  469 type  5   force =     0.00144131   -0.01415387    0.00059631
     atom  470 type  4   force =     0.00084761    0.01011621    0.02332609
     atom  471 type  5   force =    -0.01323500    0.02149935    0.02478075
     atom  472 type  5   force =    -0.00356370   -0.01350703   -0.02330813
     atom  473 type  4   force =    -0.01557750    0.03327474    0.01196916
     atom  474 type  5   force =     0.00366572   -0.01140167    0.01339014
     atom  475 type  5   force =     0.01201024   -0.00973993   -0.03868141
     atom  476 type  4   force =    -0.02806182    0.04115966    0.01375606
     atom  477 type  5   force =     0.01399397   -0.02165785    0.00672227
     atom  478 type  5   force =     0.02414075   -0.01099178   -0.02436912
     atom  479 type  4   force =    -0.02829921   -0.07268946   -0.00028794
     atom  480 type  5   force =     0.05624882    0.03401759    0.00347387
     atom  481 type  5   force =     0.00729622    0.01655850    0.01271063
     atom  482 type  4   force =    -0.00820080   -0.02048804   -0.01147284
     atom  483 type  5   force =     0.00456224    0.02019389    0.00718583
     atom  484 type  5   force =    -0.00282224    0.00427108    0.00189153
     atom  485 type  4   force =    -0.01326440   -0.02429751    0.01418670
     atom  486 type  5   force =    -0.00936549    0.00346188   -0.00401940
     atom  487 type  5   force =     0.03061196    0.02906115   -0.01530274
     atom  488 type  4   force =     0.02224088    0.00609563   -0.00214316
     atom  489 type  5   force =    -0.01086117   -0.00824973    0.00661581
     atom  490 type  5   force =    -0.00041001   -0.00464534   -0.00977812
     atom  491 type  4   force =     0.04816981    0.00483823    0.05569307
     atom  492 type  5   force =    -0.00104323   -0.01024251   -0.00913643
     atom  493 type  5   force =    -0.04866050    0.01055942   -0.03689757

     Total force =     1.175731     Total SCF correction =     0.000581
     Message from routine punch:
     Nothing written, as per user request (disk_io='none')

     init_run     :     33.03s CPU     33.74s WALL (       1 calls)
     electrons    :    745.33s CPU    756.54s WALL (       1 calls)
     forces       :      8.42s CPU      8.72s WALL (       1 calls)

     Called by init_run:
     wfcinit      :     29.71s CPU     30.21s WALL (       1 calls)
     potinit      :      0.25s CPU      0.35s WALL (       1 calls)
     hinit0       :      2.06s CPU      2.10s WALL (       1 calls)

     Called by electrons:
     c_bands      :    623.09s CPU    632.34s WALL (      12 calls)
     sum_band     :    119.16s CPU    120.24s WALL (      12 calls)
     v_of_rho     :      2.52s CPU      3.28s WALL (      13 calls)
     mix_rho      :      0.52s CPU      0.69s WALL (      12 calls)

     Called by c_bands:
     init_us_2    :      1.49s CPU      1.56s WALL (      25 calls)
     init_us_2:cp :      1.49s CPU      1.56s WALL (      25 calls)
     regterg      :    620.18s CPU    628.21s WALL (      12 calls)

     Called by *egterg:
     rdiaghg      :      6.22s CPU      6.75s WALL (      37 calls)
     h_psi        :    549.32s CPU    554.90s WALL (      38 calls)
     g_psi        :      0.18s CPU      0.18s WALL (      25 calls)

     Called by h_psi:
     h_psi:calbec :     40.12s CPU     41.18s WALL (      38 calls)
     vloc_psi     :    118.56s CPU    119.62s WALL (      38 calls)
     add_vuspsi   :     35.43s CPU     35.91s WALL (      38 calls)
     h_psi_meta   :    354.56s CPU    357.54s WALL (      38 calls)

     General routines
     calbec       :     45.79s CPU     46.97s WALL (      42 calls)
     fft          :      3.24s CPU      3.81s WALL (     129 calls)
     ffts         :      0.17s CPU      0.25s WALL (      24 calls)
     fftw         :    567.09s CPU    571.80s WALL (  150688 calls)
     interpolate  :      0.00s CPU      0.00s WALL (      13 calls)

     Parallel routines

     PWSCF        :  13m 6.99s CPU  13m19.70s WALL


   This run was terminated on:  12:24:20   9Mar2025            

=------------------------------------------------------------------------------=
   JOB DONE.
=------------------------------------------------------------------------------=
