
     Program PWSCF v.7.3 starts on  9Mar2025 at 12:24:37 

     This program is part of the open-source Quantum ESPRESSO suite
     for quantum simulation of materials; please cite
         "P. Giannozzi et al., J. Phys.:Condens. Matter 21 395502 (2009);
         "P. Giannozzi et al., J. Phys.:Condens. Matter 29 465901 (2017);
         "P. Giannozzi et al., J. Chem. Phys. 152 154105 (2020);
          URL http://www.quantum-espresso.org", 
     in publications or presentations arising from this work. More details at
     http://www.quantum-espresso.org/quote

     Parallel version (MPI & OpenMP), running on     120 processor cores
     Number of MPI processes:               120
     Threads/MPI process:                     1

     MPI processes distributed on     1 nodes
     599912 MiB available memory on the printing compute node when the environment starts

     Reading input from pw-water-97.in
Warning: card &CELL ignored
Warning: card / ignored
Warning: card &FCP ignored
Warning: card / ignored
Warning: card &RISM ignored
Warning: card / ignored

     Current dimensions of program PWSCF are:
     Max number of different atomic species (ntypx) = 10
     Max number of k-points (npk) =  40000
     Max angular momentum in pseudopotentials (lmaxx) =  4

     IMPORTANT: XC functional enforced from input :
     Exchange-correlation= SCAN
                           (   0   0   0   0   0 263 267)
     Any further DFT definition will be discarded
     Please, verify this is what you really want


     gamma-point specific algorithms are used

     R & G space division:  proc/nbgrp/npool/nimage =     120
     Subspace diagonalization in iterative solution of the eigenvalue problem:
     one sub-group per band group will be used
     ELPA distributed-memory algorithm (size of sub-group: 10* 10 procs)


     Parallelization info
     --------------------
     sticks:   dense  smooth     PW     G-vecs:    dense   smooth      PW
     Min         223     223     55                53054    53054    6618
     Max         226     226     58                53096    53096    6642
     Sum       27001   27001   6747              6368777  6368777  796049

     Using Slab Decomposition



     bravais-lattice index     =            0
     lattice parameter (alat)  =      27.1743  a.u.
     unit-cell volume          =   40863.0649 (a.u.)^3
     number of atoms/cell      =          493
     number of atomic types    =            5
     number of electrons       =      2104.00
     number of Kohn-Sham states=         1052
     kinetic-energy cutoff     =     110.0000  Ry
     charge density cutoff     =     440.0000  Ry
     scf convergence threshold =      1.0E-06
     mixing beta               =       0.5000
     number of iterations used =            8  plain     mixing
     Exchange-correlation= SCAN
                           (   0   0   0   0   0 263 267)

     celldm(1)=  27.174262  celldm(2)=   0.000000  celldm(3)=   0.000000
     celldm(4)=   0.000000  celldm(5)=   0.000000  celldm(6)=   0.000000

     crystal axes: (cart. coord. in units of alat)
               a(1) = (   1.000000   0.000000   0.000000 )  
               a(2) = (   0.263718   1.045271   0.000000 )  
               a(3) = (  -1.114529  -1.155389   1.948179 )  

     reciprocal axes: (cart. coord. in units 2 pi/alat)
               b(1) = (  1.000000 -0.252296  0.422460 )  
               b(2) = ( -0.000000  0.956690  0.567375 )  
               b(3) = (  0.000000  0.000000  0.513300 )  


     PseudoPot. # 1 for K  read from file:
     /scratch/zhouwq/DFT-feldspar-surface/script-dft/K_ONCV_PBE_sr.upf
     MD5 check sum: 1b7a13238029e3acac828725779bbc07
     Pseudo is Norm-conserving, Zval =  9.0
     Generated using ONCVPSP code by D. R. Hamann
     Using radial grid of 2222 points,  6 beta functions with: 
                l(1) =   0
                l(2) =   0
                l(3) =   1
                l(4) =   1
                l(5) =   2
                l(6) =   2

     PseudoPot. # 2 for Al read from file:
     /scratch/zhouwq/DFT-feldspar-surface/script-dft/Al_ONCV_PBE_sr.upf
     MD5 check sum: f1d308f5052db2acb2ab62005e7ebd82
     Pseudo is Norm-conserving, Zval = 11.0
     Generated using ONCVPSP code by D. R. Hamann
     Using radial grid of 1876 points,  4 beta functions with: 
                l(1) =   0
                l(2) =   0
                l(3) =   1
                l(4) =   1

     PseudoPot. # 3 for Si read from file:
     /scratch/zhouwq/DFT-feldspar-surface/script-dft/Si_ONCV_PBE_sr.upf
     MD5 check sum: 8553c464762ac42b85b1eed164b4d029
     Pseudo is Norm-conserving, Zval =  4.0
     Generated using ONCVPSP code by D. R. Hamann
     Using radial grid of 1510 points,  4 beta functions with: 
                l(1) =   0
                l(2) =   0
                l(3) =   1
                l(4) =   1

     PseudoPot. # 4 for O  read from file:
     /scratch/zhouwq/DFT-feldspar-surface/script-dft/O_ONCV_PBE_sr.upf
     MD5 check sum: 503208cc3dd01d9a06cc7045986f7d49
     Pseudo is Norm-conserving, Zval =  6.0
     Generated using ONCVPSP code by D. R. Hamann
     Using radial grid of  936 points,  4 beta functions with: 
                l(1) =   0
                l(2) =   0
                l(3) =   1
                l(4) =   1

     PseudoPot. # 5 for H  read from file:
     /scratch/zhouwq/DFT-feldspar-surface/script-dft/H_ONCV_PBE_sr.upf
     MD5 check sum: 8975ef619c0c80d0ef0fa21f3286b90d
     Pseudo is Norm-conserving, Zval =  1.0
     Generated using ONCVPSP code by D. R. Hamann
     Using radial grid of 1166 points,  2 beta functions with: 
                l(1) =   0
                l(2) =   0

     atomic species   valence    mass     pseudopotential
     K                 9.00    39.09830     K ( 1.00)
     Al               11.00    26.98154     Al( 1.00)
     Si                4.00    28.08500     Si( 1.00)
     O                 6.00    15.99900     O ( 1.00)
     H                 1.00     1.00800     H ( 1.00)

     No symmetry found



   Cartesian axes

     site n.     atom                  positions (alat units)
         1        K      tau(   1) = (  -0.9291909  -0.9195873   2.7547086  )
         2        Al     tau(   2) = (  -1.1761964  -1.6527510   2.8032127  )
         3        Si     tau(   3) = (  -1.0604722  -0.8416807   2.9695427  )
         4        Si     tau(   4) = (  -1.4558087  -1.6534294   2.8054949  )
         5        Si     tau(   5) = (  -1.1977474  -0.8127796   2.8059624  )
         6        Si     tau(   6) = (  -1.3179693  -1.6761839   2.9710957  )
         7        Si     tau(   7) = (  -0.9637820  -0.7030827   2.6250100  )
         8        Si     tau(   8) = (  -1.3134956  -1.5170311   2.7024028  )
         9        O      tau(   9) = (  -1.5616507  -1.6147132   2.8212306  )
        10        O      tau(  10) = (  -1.2028322  -0.8888226   2.7263654  )
        11        O      tau(  11) = (  -1.2852784  -0.7981854   2.8725178  )
        12        O      tau(  12) = (  -1.2267721  -1.6612855   2.9153499  )
        13        O      tau(  13) = (  -0.8995751  -0.6331487   2.5618612  )
        14        O      tau(  14) = (  -1.4019251  -1.5792492   2.7369412  )
        15        O      tau(  15) = (  -1.3114793  -1.5315657   2.5895253  )
        16        O      tau(  16) = (  -0.9287242  -0.7032813   2.7326107  )
        17        O      tau(  17) = (  -1.3382853  -1.7795423   3.0145011  )
        18        O      tau(  18) = (  -1.1884770  -0.7107329   2.7520368  )
        19        O      tau(  19) = (  -1.0733965  -0.6731040   2.6107104  )
        20        O      tau(  20) = (  -1.2149784  -1.5449129   2.7476339  )
        21        O      tau(  21) = (  -1.1035794  -0.8259125   2.8663671  )
        22        O      tau(  22) = (  -1.4127776  -1.6589477   2.9094330  )
        23        Al     tau(  23) = (  -1.0509048  -1.1371228   2.8002904  )
        24        Si     tau(  24) = (  -1.1918175  -0.9965933   2.6985621  )
        25        Si     tau(  25) = (  -1.0933173  -1.2417726   2.6233290  )
        26        O      tau(  26) = (  -1.4381415  -1.1111484   2.8119962  )
        27        O      tau(  27) = (  -0.9377244  -0.8128150   2.5919188  )
        28        O      tau(  28) = (  -1.0866014  -1.3510200   2.5911896  )
        29        O      tau(  29) = (  -1.2897348  -1.0516212   2.7395908  )
        30        O      tau(  30) = (  -1.0258260  -1.1709783   2.5614103  )
        31        O      tau(  31) = (  -1.0677877  -1.2390343   2.7297775  )
        32        O      tau(  32) = (  -1.1980338  -1.0014581   2.5869537  )
        33        O      tau(  33) = (  -1.0998443  -1.0421853   2.7447228  )
        34        O      tau(  34) = (  -1.1970713  -1.2022104   2.5963050  )
        35        O      tau(  35) = (  -1.8634890  -1.9521049   3.6608568  )
        36        Al     tau(  36) = (  -1.5971153  -1.1112101   3.4493291  )
        37        Si     tau(  37) = (  -1.4601943  -1.2389518   3.5425077  )
        38        Si     tau(  38) = (  -1.8147266  -2.0498046   3.6261514  )
        39        O      tau(  39) = (  -1.2091383  -1.1283720   3.4281274  )
        40        O      tau(  40) = (  -1.6997993  -1.4256125   3.6757799  )
        41        O      tau(  41) = (  -1.3727844  -1.1793503   3.5039227  )
        42        O      tau(  42) = (  -1.8553377  -2.1387170   3.6897901  )
        43        O      tau(  43) = (  -1.8355105  -2.0583266   3.5158733  )
        44        O      tau(  44) = (  -1.4543444  -1.2245139   3.6552962  )
        45        O      tau(  45) = (  -1.5580401  -1.2119639   3.5004772  )
        46        O      tau(  46) = (  -1.7021612  -2.0455534   3.6460117  )
        47        K      tau(  47) = (  -1.7322499  -1.3115985   3.5129177  )
        48        K      tau(  48) = (  -1.3407744  -1.6819468   3.2359256  )
        49        K      tau(  49) = (  -1.8584512  -1.8481295   3.4873910  )
        50        Al     tau(  50) = (  -1.7359480  -1.6226311   3.4478262  )
        51        Si     tau(  51) = (  -1.5861553  -1.3968954   3.2572275  )
        52        Si     tau(  52) = (  -1.4624035  -1.6252627   3.4376066  )
        53        Si     tau(  53) = (  -1.4531994  -1.4150703   3.4310608  )
        54        Si     tau(  54) = (  -1.5983256  -1.5983122   3.2756851  )
        55        Si     tau(  55) = (  -1.6841703  -1.5301428   3.6362931  )
        56        Si     tau(  56) = (  -1.5958705  -1.7647086   3.5476175  )
        57        O      tau(  57) = (  -1.3548154  -1.6477138   3.4213366  )
        58        O      tau(  58) = (  -1.4494040  -1.3511031   3.5253638  )
        59        O      tau(  59) = (  -1.5691388  -1.8727457   3.5276960  )
        60        O      tau(  60) = (  -1.6184622  -1.6768318   3.2012035  )
        61        O      tau(  61) = (  -1.3582513  -1.4133725   3.3768457  )
        62        O      tau(  62) = (  -1.6805553  -1.5882033   3.3484023  )
        63        O      tau(  63) = (  -1.7336020  -1.6089495   3.7032604  )
        64        O      tau(  64) = (  -1.5120461  -1.6986546   3.5084703  )
        65        O      tau(  65) = (  -1.6114542  -1.7545896   3.6580793  )
        66        O      tau(  66) = (  -1.7207958  -1.5362249   3.5285031  )
        67        O      tau(  67) = (  -1.5872395  -1.4989609   3.2116457  )
        68        O      tau(  68) = (  -1.4718082  -1.5176271   3.4787578  )
        69        O      tau(  69) = (  -1.5697939  -1.5560849   3.6403230  )
        70        O      tau(  70) = (  -1.6916432  -1.7350608   3.4945825  )
        71        O      tau(  71) = (  -1.5389992  -1.3937552   3.3584493  )
        72        O      tau(  72) = (  -1.5043775  -1.6205877   3.3323103  )
        73        K      tau(  73) = (  -1.2096898  -1.1550325   3.2325970  )
        74        Al     tau(  74) = (  -1.3378275  -0.8325357   2.9753149  )
        75        Al     tau(  75) = (  -1.4476708  -1.9032346   3.2681540  )
        76        Si     tau(  76) = (  -1.3169674  -1.1044285   3.4428222  )
        77        Si     tau(  77) = (  -1.7215480  -1.9226834   3.2778671  )
        78        Si     tau(  78) = (  -1.4500474  -1.0868183   3.2772659  )
        79        Si     tau(  79) = (  -1.5807417  -1.9459476   3.4417479  )
        80        Si     tau(  80) = (  -1.2068845  -0.9724934   3.0753177  )
        81        Si     tau(  81) = (  -1.5821397  -1.7823100   3.1628466  )
        82        O      tau(  82) = (  -0.9540861  -0.8752426   2.9592396  )
        83        O      tau(  83) = (  -1.8252778  -1.8842921   3.2926398  )
        84        O      tau(  84) = (  -1.4646102  -1.1547931   3.1900766  )
        85        O      tau(  85) = (  -1.5331073  -1.1016664   3.3509739  )
        86        O      tau(  86) = (  -1.4987421  -1.9267974   3.3714075  )
        87        O      tau(  87) = (  -1.1103981  -0.9232540   3.0318900  )
        88        O      tau(  88) = (  -1.6594173  -1.8526357   3.2124528  )
        89        O      tau(  89) = (  -1.5889534  -1.7889794   3.0523960  )
        90        O      tau(  90) = (  -1.2139819  -0.9492302   3.1895144  )
        91        O      tau(  91) = (  -1.5884379  -2.0495055   3.4937977  )
        92        O      tau(  92) = (  -1.4610715  -0.9841009   3.2337714  )
        93        O      tau(  93) = (  -1.2969340  -0.9363742   3.0233347  )
        94        O      tau(  94) = (  -1.4855122  -1.8043725   3.2078217  )
        95        O      tau(  95) = (  -1.3552392  -1.0971190   3.3340971  )
        96        O      tau(  96) = (  -1.6740945  -1.9239225   3.3848166  )
        97        K      tau(  97) = (  -1.4452384  -1.0589305   3.0192658  )
        98        K      tau(  98) = (  -1.0619980  -1.4330223   2.7621729  )
        99        K      tau(  99) = (  -1.5746562  -1.5909638   3.0055005  )
       100        Al     tau( 100) = (  -1.3120832  -1.3915146   3.2616694  )
       101        Al     tau( 101) = (  -1.4620363  -1.3610030   2.9812763  )
       102        Si     tau( 102) = (  -1.3301755  -1.1316820   2.8056340  )
       103        Si     tau( 103) = (  -1.1850250  -1.3669661   2.9677893  )
       104        Si     tau( 104) = (  -1.1967448  -1.1567386   2.9677003  )
       105        Si     tau( 105) = (  -1.3195408  -1.3371385   2.8094079  )
       106        Si     tau( 106) = (  -1.4466168  -1.2602001   3.1593065  )
       107        Si     tau( 107) = (  -1.3249450  -1.4949905   3.0797428  )
       108        O      tau( 108) = (  -1.6908649  -1.3603297   3.2761638  )
       109        O      tau( 109) = (  -1.0793539  -1.3893724   2.9515248  )
       110        O      tau( 110) = (  -1.1938294  -1.0837518   3.0528914  )
       111        O      tau( 111) = (  -1.3234632  -1.6083601   3.0612852  )
       112        O      tau( 112) = (  -1.3398596  -1.4102675   2.7260147  )
       113        O      tau( 113) = (  -1.1062683  -1.1548368   2.9056313  )
       114        O      tau( 114) = (  -1.4110448  -1.3325253   2.8742990  )
       115        O      tau( 115) = (  -1.5375678  -1.3178417   3.1944015  )
       116        O      tau( 116) = (  -1.2322460  -1.4453408   3.0336211  )
       117        O      tau( 117) = (  -1.3170755  -1.4808301   3.1881840  )
       118        O      tau( 118) = (  -1.4485560  -1.2651906   3.0493958  )
       119        O      tau( 119) = (  -1.2988243  -1.2333743   2.7653679  )
       120        O      tau( 120) = (  -1.1984796  -1.2638827   3.0118293  )
       121        O      tau( 121) = (  -1.3556592  -1.2954956   3.2047770  )
       122        O      tau( 122) = (  -1.4201649  -1.4618497   3.0314002  )
       123        O      tau( 123) = (  -1.2878830  -1.1301935   2.9111919  )
       124        O      tau( 124) = (  -1.2287714  -1.3700249   2.8642853  )
       125        H      tau( 125) = (  -1.6815789  -1.4068257   3.7394130  )
       126        H      tau( 126) = (  -1.9234047  -2.1440195   3.6836505  )
       127        H      tau( 127) = (  -1.5071019  -1.1941204   3.6807394  )
       128        H      tau( 128) = (  -1.6555036  -2.0466039   3.5973406  )
       129        H      tau( 129) = (  -1.8969155  -1.9582637   3.7221020  )
       130        H      tau( 130) = (  -1.7972947  -1.6240752   3.6819862  )
       131        H      tau( 131) = (  -1.6578155  -1.7008293   3.6660724  )
       132        H      tau( 132) = (  -1.5439076  -1.5490627   3.5784767  )
       133        H      tau( 133) = (  -0.9242746  -0.5709139   2.5449510  )
       134        H      tau( 134) = (  -1.0557273  -0.5508759   2.5782092  )
       135        H      tau( 135) = (  -1.1155277  -0.6807674   2.6621868  )
       136        H      tau( 136) = (  -0.9106915  -0.8136126   2.5287031  )
       137        H      tau( 137) = (  -1.1234564  -1.3616301   2.5376369  )
       138        H      tau( 138) = (  -0.9704387  -1.1976959   2.5339354  )
       139        H      tau( 139) = (  -1.1815311  -1.0629921   2.5679450  )
       140        H      tau( 140) = (  -1.2298772  -1.1986712   2.6542104  )
       141        K      tau( 141) = (  -0.4659896  -0.9263187   2.7438990  )
       142        Al     tau( 142) = (  -0.6702358  -1.6518164   2.7949023  )
       143        Si     tau( 143) = (  -0.5560750  -0.8420980   2.9670490  )
       144        Si     tau( 144) = (  -0.9563424  -1.6539585   2.8055784  )
       145        Si     tau( 145) = (  -0.6989995  -0.8183587   2.8114340  )
       146        Si     tau( 146) = (  -0.8147935  -1.6765186   2.9624457  )
       147        Si     tau( 147) = (  -0.4698450  -0.7136609   2.6216703  )
       148        Si     tau( 148) = (  -0.8215967  -1.5186644   2.7038444  )
       149        O      tau( 149) = (  -1.0602778  -1.6300272   2.8315671  )
       150        O      tau( 150) = (  -0.7041216  -0.8855673   2.7210719  )
       151        O      tau( 151) = (  -0.7841619  -0.8248854   2.8764810  )
       152        O      tau( 152) = (  -0.7242047  -1.6757832   2.9007163  )
       153        O      tau( 153) = (  -0.4163739  -0.6462843   2.5445335  )
       154        O      tau( 154) = (  -0.9131952  -1.5728067   2.7404813  )
       155        O      tau( 155) = (  -0.5523405  -0.4961947   2.5894362  )
       156        O      tau( 156) = (  -0.4226065  -0.7011737   2.7217955  )
       157        O      tau( 157) = (  -0.8327295  -1.7831288   3.0075544  )
       158        O      tau( 158) = (  -0.6861030  -0.7133971   2.7558664  )
       159        O      tau( 159) = (  -0.5822614  -0.6982021   2.6074764  )
       160        O      tau( 160) = (  -0.7250819  -1.5553504   2.7483019  )
       161        O      tau( 161) = (  -0.6051438  -0.8540669   2.8621424  )
       162        O      tau( 162) = (  -0.9058233  -1.6447267   2.9066388  )
       163        Al     tau( 163) = (  -0.5556574  -1.1353611   2.7888741  )
       164        Si     tau( 164) = (  -0.6978963  -0.9983169   2.6915932  )
       165        Si     tau( 165) = (  -0.6096736  -1.2500603   2.6164937  )
       166        O      tau( 166) = (  -0.9345572  -1.1115083   2.8180244  )
       167        O      tau( 167) = (  -0.4443205  -0.8236341   2.5945405  )
       168        O      tau( 168) = (  -0.6069664  -1.3652815   2.6117735  )
       169        O      tau( 169) = (  -0.7850010  -1.0617319   2.7344810  )
       170        O      tau( 170) = (  -0.5476243  -1.2141151   2.5271446  )
       171        O      tau( 171) = (  -0.5732263  -1.2291996   2.7182777  )
       172        O      tau( 172) = (  -0.7203950  -0.9987993   2.5791165  )
       173        O      tau( 173) = (  -0.6018290  -1.0386491   2.7264155  )
       174        O      tau( 174) = (  -0.7152534  -1.2083587   2.6028898  )
       175        O      tau( 175) = (  -1.3377579  -1.9489594   3.6537710  )
       176        Al     tau( 176) = (  -1.0935122  -1.1053155   3.4521011  )
       177        Si     tau( 177) = (  -0.9633123  -1.2424758   3.5423797  )
       178        Si     tau( 178) = (  -1.3046157  -2.0568392   3.6332038  )
       179        O      tau( 179) = (  -1.7195117  -1.1292782   3.4255558  )
       180        O      tau( 180) = (  -1.2070107  -1.4156913   3.6483774  )
       181        O      tau( 181) = (  -0.8820343  -1.1796636   3.4938812  )
       182        O      tau( 182) = (  -1.3551649  -2.1305685   3.7040118  )
       183        O      tau( 183) = (  -1.3315549  -2.0598208   3.5244787  )
       184        O      tau( 184) = (  -0.9543915  -1.2321360   3.6570551  )
       185        O      tau( 185) = (  -1.0615292  -1.2093032   3.4995810  )
       186        O      tau( 186) = (  -1.1903938  -2.0765395   3.6401672  )
       187        K      tau( 187) = (  -1.2096107  -1.3355776   3.4975215  )
       188        K      tau( 188) = (  -0.8445063  -1.6966786   3.2228950  )
       189        K      tau( 189) = (  -1.3623047  -1.8453988   3.5072290  )
       190        Al     tau( 190) = (  -1.2375942  -1.6344123   3.4429001  )
       191        Si     tau( 191) = (  -1.0917885  -1.3907813   3.2699241  )
       192        Si     tau( 192) = (  -0.9542641  -1.6303587   3.4316341  )
       193        Si     tau( 193) = (  -0.9453152  -1.4213617   3.4324301  )
       194        Si     tau( 194) = (  -1.0952365  -1.6022261   3.2704195  )
       195        Si     tau( 195) = (  -1.1818446  -1.5230482   3.6220602  )
       196        Si     tau( 196) = (  -1.0924373  -1.7649550   3.5371920  )
       197        O      tau( 197) = (  -1.8468100  -1.6605732   3.4206130  )
       198        O      tau( 198) = (  -0.9358527  -1.3548038   3.5233377  )
       199        O      tau( 199) = (  -1.0735514  -1.8796806   3.5199367  )
       200        O      tau( 200) = (  -1.0986361  -1.6711749   3.1825510  )
       201        O      tau( 201) = (  -0.8571069  -1.4246635   3.3698768  )
       202        O      tau( 202) = (  -1.1803704  -1.6098763   3.3405651  )
       203        O      tau( 203) = (  -1.2264595  -1.5976793   3.7051918  )
       204        O      tau( 204) = (  -1.0003957  -1.7121937   3.4966365  )
       205        O      tau( 205) = (  -1.0836548  -1.7548209   3.6537599  )
       206        O      tau( 206) = (  -1.2261804  -1.5383426   3.5203375  )
       207        O      tau( 207) = (  -1.0886593  -1.4949755   3.2234795  )
       208        O      tau( 208) = (  -0.9680847  -1.5242133   3.4725959  )
       209        O      tau( 209) = (  -1.0694505  -1.5442754   3.6319793  )
       210        O      tau( 210) = (  -1.1931627  -1.7320648   3.5024253  )
       211        O      tau( 211) = (  -1.0348361  -1.3860933   3.3722091  )
       212        O      tau( 212) = (  -1.0038063  -1.6343263   3.3257478  )
       213        K      tau( 213) = (  -0.6908005  -1.1677037   3.2255000  )
       214        Al     tau( 214) = (  -0.8383530  -0.8380729   2.9833191  )
       215        Al     tau( 215) = (  -0.9429636  -1.9155149   3.2620813  )
       216        Si     tau( 216) = (  -0.8220611  -1.1054164   3.4316341  )
       217        Si     tau( 217) = (  -1.2278055  -1.9155759   3.2737759  )
       218        Si     tau( 218) = (  -0.9533608  -1.0777333   3.2732360  )
       219        Si     tau( 219) = (  -1.0851122  -1.9440133   3.4296748  )
       220        Si     tau( 220) = (  -0.6934881  -0.9716422   3.0756238  )
       221        Si     tau( 221) = (  -1.0876477  -1.7864199   3.1676781  )
       222        O      tau( 222) = (  -1.4508552  -0.8721508   2.9479791  )
       223        O      tau( 223) = (  -1.3361246  -1.8892280   3.2954953  )
       224        O      tau( 224) = (  -0.9678845  -1.1423214   3.1807643  )
       225        O      tau( 225) = (  -1.0389334  -1.0849266   3.3401031  )
       226        O      tau( 226) = (  -0.9941166  -1.9366152   3.3643050  )
       227        O      tau( 227) = (  -0.6051278  -0.9091006   3.0423656  )
       228        O      tau( 228) = (  -1.1805077  -1.8357247   3.2104100  )
       229        O      tau( 229) = (  -1.0909733  -1.7928176   3.0582795  )
       230        O      tau( 230) = (  -0.6892553  -0.9670786   3.1875551  )
       231        O      tau( 231) = (  -1.1029352  -2.0474392   3.4724624  )
       232        O      tau( 232) = (  -0.9421625  -0.9742994   3.2351463  )
       233        O      tau( 233) = (  -0.7928622  -0.9403080   3.0326414  )
       234        O      tau( 234) = (  -0.9891091  -1.8163309   3.2102096  )
       235        O      tau( 235) = (  -0.8616461  -1.1129744   3.3259203  )
       236        O      tau( 236) = (  -1.1759057  -1.9072818   3.3731386  )
       237        K      tau( 237) = (  -0.9537885  -1.0640993   3.0228894  )
       238        K      tau( 238) = (  -0.5672051  -1.4102999   2.7772630  )
       239        K      tau( 239) = (  -1.0589733  -1.5903396   3.0062686  )
       240        Al     tau( 240) = (  -0.8097036  -1.3962929   3.2594651  )
       241        Al     tau( 241) = (  -0.9648149  -1.3606147   2.9778809  )
       242        Si     tau( 242) = (  -0.8286110  -1.1320344   2.8138776  )
       243        Si     tau( 243) = (  -0.6839056  -1.3674345   2.9747304  )
       244        Si     tau( 244) = (  -0.6916522  -1.1546269   2.9662141  )
       245        Si     tau( 245) = (  -0.8207687  -1.3397142   2.8109609  )
       246        Si     tau( 246) = (  -0.9505946  -1.2555589   3.1659859  )
       247        Si     tau( 247) = (  -0.8165697  -1.4969271   3.0796649  )
       248        O      tau( 248) = (  -1.1950958  -1.3625404   3.2915767  )
       249        O      tau( 249) = (  -1.5803045  -1.3853763   2.9533561  )
       250        O      tau( 250) = (  -0.6650396  -1.0783334   3.0468464  )
       251        O      tau( 251) = (  -0.8085476  -1.6069014   3.0514107  )
       252        O      tau( 252) = (  -0.8371516  -1.4079231   2.7185949  )
       253        O      tau( 253) = (  -0.6108580  -1.1498323   2.8915265  )
       254        O      tau( 254) = (  -0.9125504  -1.3345518   2.8685880  )
       255        O      tau( 255) = (  -1.0375888  -1.3172059   3.2088960  )
       256        O      tau( 256) = (  -0.7237782  -1.4437178   3.0445420  )
       257        O      tau( 257) = (  -0.8230040  -1.4924505   3.1898094  )
       258        O      tau( 258) = (  -0.9642937  -1.2642896   3.0528802  )
       259        O      tau( 259) = (  -0.7893283  -1.2359994   2.7781257  )
       260        O      tau( 260) = (  -0.7001226  -1.2574784   3.0157368  )
       261        O      tau( 261) = (  -0.8593053  -1.2942808   3.2121967  )
       262        O      tau( 262) = (  -0.9057275  -1.4557374   3.0274370  )
       263        O      tau( 263) = (  -0.7890306  -1.1197788   2.9175764  )
       264        O      tau( 264) = (  -0.7311508  -1.3741877   2.8681038  )
       265        H      tau( 265) = (  -1.2366405  -1.3983744   3.7094500  )
       266        H      tau( 266) = (  -1.4170482  -2.1631138   3.6955122  )
       267        H      tau( 267) = (  -0.9846218  -1.1776692   3.6883150  )
       268        H      tau( 268) = (  -1.1571281  -2.0651748   3.5839928  )
       269        H      tau( 269) = (  -1.3217339  -1.9259864   3.7131849  )
       270        H      tau( 270) = (  -1.2751833  -1.6340493   3.6755127  )
       271        H      tau( 271) = (  -1.1178785  -1.6991209   3.6757020  )
       272        H      tau( 272) = (  -1.0362045  -1.5268473   3.5788218  )
       273        H      tau( 273) = (  -0.4443268  -0.5878927   2.5224411  )
       274        H      tau( 274) = (  -0.5865716  -0.5561998   2.5862078  )
       275        H      tau( 275) = (  -0.6294432  -0.7160001   2.6522177  )
       276        H      tau( 276) = (  -0.4043389  -0.8217820   2.5427690  )
       277        H      tau( 277) = (  -0.6509154  -1.3950323   2.5756376  )
       278        H      tau( 278) = (  -0.4831459  -1.2269050   2.5402364  )
       279        H      tau( 279) = (  -0.7325851  -1.0594131   2.5532335  )
       280        H      tau( 280) = (  -0.7511160  -1.2098627   2.6582515  )
       281        O      tau( 281) = (  -1.7099405  -2.2033159   4.2575730  )
       282        H      tau( 282) = (  -1.6831003  -2.2672714   4.2645252  )
       283        H      tau( 283) = (  -1.6676500  -2.1749956   4.2116127  )
       284        O      tau( 284) = (  -2.0054121  -2.0629494   4.1354277  )
       285        H      tau( 285) = (  -2.0631883  -2.0938685   4.1653796  )
       286        H      tau( 286) = (  -1.9599237  -2.0906563   4.1742132  )
       287        O      tau( 287) = (  -1.4526995  -1.7623446   4.1349824  )
       288        H      tau( 288) = (  -1.4375571  -1.6994645   4.1146824  )
       289        H      tau( 289) = (  -1.3981454  -1.7998604   4.1521932  )
       290        O      tau( 290) = (  -1.3363115  -1.4160000   4.0609126  )
       291        H      tau( 291) = (  -1.2718679  -1.4228700   4.0473756  )
       292        H      tau( 292) = (  -1.3571639  -1.3571316   4.0450099  )
       293        O      tau( 293) = (  -1.5812011  -1.8377121   4.0185258  )
       294        H      tau( 294) = (  -1.5414427  -1.8135542   4.0674975  )
       295        H      tau( 295) = (  -1.5377378  -1.8748801   3.9775974  )
       296        O      tau( 296) = (  -1.2130884  -1.6217428   4.1664038  )
       297        H      tau( 297) = (  -1.2670365  -1.6245678   4.1269003  )
       298        H      tau( 298) = (  -1.2172275  -1.5647142   4.2015767  )
       299        O      tau( 299) = (  -1.5849469  -1.7092112   4.2711935  )
       300        H      tau( 300) = (  -1.6142672  -1.6723632   4.2246209  )
       301        H      tau( 301) = (  -1.5290596  -1.7291022   4.2375958  )
       302        O      tau( 302) = (  -1.4083637  -1.7074721   3.6616751  )
       303        H      tau( 303) = (  -1.4059500  -1.7244417   3.7233990  )
       304        H      tau( 304) = (  -1.4549580  -1.6615212   3.6566488  )
       305        O      tau( 305) = (  -1.3990635  -1.7525682   3.8769099  )
       306        H      tau( 306) = (  -1.4516734  -1.7168159   3.8955011  )
       307        H      tau( 307) = (  -1.4169683  -1.8156389   3.8829326  )
       308        O      tau( 308) = (  -1.5483654  -1.6268032   3.9322048  )
       309        H      tau( 309) = (  -1.5277405  -1.5982694   3.9930604  )
       310        H      tau( 310) = (  -1.6102677  -1.6537174   3.9339470  )
       311        O      tau( 311) = (  -2.0159206  -1.6001116   4.1048302  )
       312        H      tau( 312) = (  -2.0789626  -1.5914648   4.1176659  )
       313        H      tau( 313) = (  -2.0168475  -1.6464861   4.0559754  )
       314        O      tau( 314) = (  -1.9904335  -1.5567254   3.8203181  )
       315        H      tau( 315) = (  -1.9672214  -1.6058137   3.7784768  )
       316        H      tau( 316) = (  -1.9413747  -1.5360007   3.8617419  )
       317        O      tau( 317) = (  -2.1499719  -2.3386470   4.2337384  )
       318        H      tau( 318) = (  -2.1555139  -2.2722371   4.2511718  )
       319        H      tau( 319) = (  -2.1610410  -2.3718518   4.2922283  )
       320        O      tau( 320) = (  -1.3989087  -2.2195089   4.1830802  )
       321        H      tau( 321) = (  -1.3951634  -2.1955684   4.2483497  )
       322        H      tau( 322) = (  -1.4435203  -2.1850466   4.1476456  )
       323        O      tau( 323) = (  -1.4766517  -1.4952085   3.8155812  )
       324        H      tau( 324) = (  -1.4988452  -1.5508566   3.8496855  )
       325        H      tau( 325) = (  -1.5065162  -1.5081751   3.7585608  )
       326        O      tau( 326) = (  -1.1620351  -1.5774390   3.8727464  )
       327        H      tau( 327) = (  -1.1002495  -1.5584615   3.8437575  )
       328        H      tau( 328) = (  -1.2018469  -1.5848209   3.8153808  )
       329        O      tau( 329) = (  -2.1869992  -2.4043066   4.4038812  )
       330        H      tau( 330) = (  -2.2185671  -2.4599082   4.3804586  )
       331        H      tau( 331) = (  -2.2321806  -2.3666042   4.4336772  )
       332        O      tau( 332) = (  -1.5290574  -2.0367016   4.4414032  )
       333        H      tau( 333) = (  -1.5103245  -1.9935531   4.3961831  )
       334        H      tau( 334) = (  -1.5940843  -2.0362660   4.4281778  )
       335        O      tau( 335) = (  -1.7226495  -2.0820375   3.9914795  )
       336        H      tau( 336) = (  -1.7213798  -2.1516523   3.9949584  )
       337        H      tau( 337) = (  -1.6837964  -2.0627219   4.0420598  )
       338        O      tau( 338) = (  -1.7166434  -2.5336056   4.3874219  )
       339        H      tau( 339) = (  -1.6964000  -2.5285113   4.4482107  )
       340        H      tau( 340) = (  -1.7812793  -2.5559189   4.3938565  )
       341        O      tau( 341) = (  -2.3048293  -2.0067758   4.2943546  )
       342        H      tau( 342) = (  -1.2972098  -1.9526402   4.2502534  )
       343        H      tau( 343) = (  -2.2925333  -1.9890158   4.3611326  )
       344        O      tau( 344) = (  -1.2710102  -2.1947836   4.0300591  )
       345        H      tau( 345) = (  -1.3064862  -2.2118305   4.0858326  )
       346        H      tau( 346) = (  -2.2479723  -2.2561763   4.0114679  )
       347        O      tau( 347) = (  -1.8314638  -1.8457727   4.2449376  )
       348        H      tau( 348) = (  -1.8387000  -1.7725888   4.2446092  )
       349        H      tau( 349) = (  -1.8698419  -1.8681373   4.1896038  )
       350        O      tau( 350) = (  -1.7123040  -1.4784975   4.0048663  )
       351        H      tau( 351) = (  -1.7322601  -1.4278062   4.0481326  )
       352        H      tau( 352) = (  -1.6796953  -1.4476348   3.9525605  )
       353        O      tau( 353) = (  -1.9491814  -1.3018090   3.9383054  )
       354        H      tau( 354) = (  -1.9351907  -1.3563246   3.9728160  )
       355        H      tau( 355) = (  -0.9841133  -1.3298685   3.8851980  )
       356        O      tau( 356) = (  -1.7072512  -1.7183275   3.9719922  )
       357        H      tau( 357) = (  -1.6664394  -1.7736550   3.9866759  )
       358        H      tau( 358) = (  -1.7628895  -1.7451865   3.9449125  )
       359        O      tau( 359) = (  -1.4014153  -2.1220530   3.8902299  )
       360        H      tau( 360) = (  -1.3694711  -2.1206703   3.8342003  )
       361        H      tau( 361) = (  -1.3570255  -2.1402838   3.9397248  )
       362        O      tau( 362) = (  -1.5221638  -2.1986326   3.7189849  )
       363        H      tau( 363) = (  -1.2869019  -1.2107686   3.6933079  )
       364        H      tau( 364) = (  -1.5639462  -2.1730539   3.7653794  )
       365        O      tau( 365) = (  -1.4011980  -2.1731446   4.3668770  )
       366        H      tau( 366) = (  -2.3653234  -2.1171906   4.3437660  )
       367        H      tau( 367) = (  -1.4588424  -2.1429772   4.3882457  )
       368        O      tau( 368) = (  -1.1920622  -1.8277933   4.0204517  )
       369        H      tau( 369) = (  -1.2142371  -1.8622889   3.9655632  )
       370        H      tau( 370) = (  -1.2235120  -1.7650338   4.0192439  )
       371        O      tau( 371) = (  -1.6323358  -1.5630488   4.3764676  )
       372        H      tau( 372) = (  -1.9571732  -2.6081990   4.4069482  )
       373        H      tau( 373) = (  -1.6202936  -1.6230529   4.3443059  )
       374        O      tau( 374) = (  -1.8172436  -1.5855969   4.4229122  )
       375        H      tau( 375) = (  -1.8254694  -1.5975394   4.3597411  )
       376        H      tau( 376) = (  -2.1361379  -2.5994574   4.4320352  )
       377        O      tau( 377) = (  -2.3130454  -2.3939233   4.1304905  )
       378        H      tau( 378) = (  -1.3465578  -2.3349102   4.1352552  )
       379        H      tau( 379) = (  -2.2568216  -2.3868460   4.1680736  )
       380        O      tau( 380) = (  -1.4861966  -1.2758947   3.8317956  )
       381        H      tau( 381) = (  -1.7219523  -2.2583861   3.8334711  )
       382        H      tau( 382) = (  -1.4555177  -1.3091279   3.7838871  )
       383        O      tau( 383) = (  -1.2912716  -1.8614556   4.1787163  )
       384        H      tau( 384) = (  -1.2713772  -1.8536118   4.1164135  )
       385        H      tau( 385) = (  -2.2380480  -1.8349325   4.2128094  )
       386        O      tau( 386) = (  -1.4917728  -2.3017165   3.9446564  )
       387        H      tau( 387) = (  -1.1955309  -1.3137188   3.9505511  )
       388        H      tau( 388) = (  -1.4520099  -2.2585328   3.9078748  )
       389        O      tau( 389) = (  -1.4889432  -1.9283767   3.9000431  )
       390        H      tau( 390) = (  -1.4710274  -1.9940524   3.8921335  )
       391        H      tau( 391) = (  -1.5307950  -1.9114886   3.8452158  )
       392        O      tau( 392) = (  -1.6208975  -1.9174515   3.7764284  )
       393        H      tau( 393) = (  -1.6301414  -1.9788026   3.7491483  )
       394        H      tau( 394) = (  -1.6352680  -1.8735715   3.7278352  )
       395        O      tau( 395) = (  -1.9109277  -1.6867293   3.7270226  )
       396        H      tau( 396) = (  -1.9572109  -1.7171487   3.6862611  )
       397        H      tau( 397) = (  -1.8800559  -1.7259669   3.7720144  )
       398        O      tau( 398) = (  -1.9077093  -2.0858984   3.9738346  )
       399        H      tau( 399) = (  -1.8402664  -2.0724346   3.9863753  )
       400        H      tau( 400) = (  -1.9407402  -2.0853615   4.0339665  )
       401        O      tau( 401) = (  -2.1739612  -2.1372104   4.2070094  )
       402        H      tau( 402) = (  -2.2205133  -2.1045053   4.2475705  )
       403        H      tau( 403) = (  -2.2083643  -2.1538625   4.1522377  )
       404        O      tau( 404) = (  -1.6374478  -2.4123665   4.2628386  )
       405        H      tau( 405) = (  -1.6715900  -2.4448049   4.3093500  )
       406        H      tau( 406) = (  -1.6379072  -2.4536594   4.2071207  )
       407        O      tau( 407) = (  -1.8784533  -1.7883620   3.9151221  )
       408        H      tau( 408) = (  -1.9371925  -1.7643213   3.9411497  )
       409        H      tau( 409) = (  -1.8997903  -1.8355521   3.8695514  )
       410        O      tau( 410) = (  -2.2846802  -2.5613510   4.3507906  )
       411        H      tau( 411) = (  -2.3463814  -2.5511319   4.3230541  )
       412        H      tau( 412) = (  -1.9993247  -1.5781613   4.3372925  )
       413        O      tau( 413) = (  -1.6285954  -1.4120951   3.8586360  )
       414        H      tau( 414) = (  -1.5622080  -1.4357216   3.8525187  )
       415        H      tau( 415) = (  -1.6099000  -1.3481597   3.8692174  )
       416        O      tau( 416) = (  -1.2923169  -1.6644967   3.9988325  )
       417        H      tau( 417) = (  -1.3299280  -1.6955444   3.9506123  )
       418        H      tau( 418) = (  -1.2466474  -1.6328101   3.9620787  )
       419        O      tau( 419) = (  -1.9449340  -1.9595732   3.8250494  )
       420        H      tau( 420) = (  -2.0098234  -1.9841550   3.8228396  )
       421        H      tau( 421) = (  -1.9173489  -2.0004778   3.8736592  )
       422        O      tau( 422) = (  -1.6329979  -1.9869484   4.1271396  )
       423        H      tau( 423) = (  -1.6423079  -1.9620510   4.1888412  )
       424        H      tau( 424) = (  -1.6217242  -1.9341167   4.0882261  )
       425        O      tau( 425) = (  -1.7602714  -1.1665010   3.6660167  )
       426        H      tau( 426) = (  -1.7641473  -1.2008247   3.7267387  )
       427        H      tau( 427) = (  -1.8270815  -1.1557956   3.6495908  )
       428        O      tau( 428) = (  -1.9089219  -2.2743552   3.9949529  )
       429        H      tau( 429) = (  -1.9590161  -2.3078370   4.0320852  )
       430        H      tau( 430) = (  -1.9266715  -2.2106607   3.9830523  )
       431        O      tau( 431) = (  -2.0491261  -1.8695837   4.1423243  )
       432        H      tau( 432) = (  -2.0243360  -1.9310698   4.1494045  )
       433        H      tau( 433) = (  -2.0852275  -1.8744382   4.0830941  )
       434        O      tau( 434) = (  -1.5501588  -2.1568688   4.1057096  )
       435        H      tau( 435) = (  -1.5754722  -2.1815933   4.0518453  )
       436        H      tau( 436) = (  -1.5650179  -2.0901571   4.1104465  )
       437        O      tau( 437) = (  -1.4619659  -1.5575592   4.0994643  )
       438        H      tau( 438) = (  -1.4175496  -1.5103342   4.0894785  )
       439        H      tau( 439) = (  -1.5150994  -1.5250586   4.1304738  )
       440        O      tau( 440) = (  -2.0491346  -1.7190695   3.9503396  )
       441        H      tau( 441) = (  -1.0948987  -1.6838186   3.9149217  )
       442        H      tau( 442) = (  -2.0814251  -1.7701489   3.9822340  )
       443        O      tau( 443) = (  -2.0023561  -2.3827767   4.1417120  )
       444        H      tau( 444) = (  -1.9580107  -2.4178738   4.1805030  )
       445        H      tau( 445) = (  -2.0624470  -2.3782597   4.1763506  )
       446        O      tau( 446) = (  -1.4544567  -2.4916353   4.2656217  )
       447        H      tau( 447) = (  -1.4312307  -2.4448890   4.2236246  )
       448        H      tau( 448) = (  -1.5028948  -2.4643572   4.3004942  )
       449        O      tau( 449) = (  -1.8601315  -2.4909911   4.2205910  )
       450        H      tau( 450) = (  -1.8751682  -2.5323234   4.2730805  )
       451        H      tau( 451) = (  -1.8010365  -2.4637937   4.2415534  )
       452        O      tau( 452) = (  -1.6823443  -1.6285060   4.1302289  )
       453        H      tau( 453) = (  -1.6840932  -1.5606888   4.1071402  )
       454        H      tau( 454) = (  -1.6965813  -1.6633524   4.0717390  )
       455        O      tau( 455) = (  -1.2680651  -1.9410340   3.8629498  )
       456        H      tau( 456) = (  -1.2219839  -1.9877194   3.8423047  )
       457        H      tau( 457) = (  -1.3274860  -1.9728206   3.8742437  )
       458        O      tau( 458) = (  -2.0680969  -2.2264275   3.8614469  )
       459        H      tau( 459) = (  -2.0197199  -2.2335989   3.9093276  )
       460        H      tau( 460) = (  -2.1205680  -2.2675382   3.8826153  )
       461        O      tau( 461) = (  -1.8699162  -1.6421034   4.2293300  )
       462        H      tau( 462) = (  -1.9199917  -1.6245419   4.1862140  )
       463        H      tau( 463) = (  -1.8118597  -1.6326832   4.1950030  )
       464        O      tau( 464) = (  -1.0222582  -1.3682907   3.7777420  )
       465        H      tau( 465) = (  -1.0097092  -1.4314652   3.7654741  )
       466        H      tau( 466) = (  -0.9849711  -1.3354392   3.7310470  )
       467        O      tau( 467) = (  -1.1339391  -2.0591246   3.8149077  )
       468        H      tau( 468) = (  -1.1521947  -2.0801889   3.7533119  )
       469        H      tau( 469) = (  -2.1104373  -2.1188999   3.8409688  )
       470        O      tau( 470) = (  -1.7062776  -2.2845301   4.0281053  )
       471        H      tau( 471) = (  -1.7304372  -2.2575839   4.0892781  )
       472        H      tau( 472) = (  -1.7658348  -2.2953093   3.9985208  )
       473        O      tau( 473) = (  -1.6623209  -1.8870206   4.2921170  )
       474        H      tau( 474) = (  -1.7289068  -1.8739466   4.2674530  )
       475        H      tau( 475) = (  -1.6293762  -1.8270037   4.2865007  )
       476        O      tau( 476) = (  -1.9018702  -1.4819617   3.9800242  )
       477        H      tau( 477) = (  -1.8348975  -1.4848320   3.9912847  )
       478        H      tau( 478) = (  -1.9400749  -1.5132614   4.0264187  )
       479        O      tau( 479) = (  -1.2948380  -1.3572230   3.7914572  )
       480        H      tau( 480) = (  -1.3347026  -1.4077696   3.8118519  )
       481        H      tau( 481) = (  -1.2768317  -1.3181014   3.8431897  )
       482        O      tau( 482) = (  -2.1556290  -1.7771362   4.2753515  )
       483        H      tau( 483) = (  -2.1510989  -1.7157496   4.2488507  )
       484        H      tau( 484) = (  -2.1068178  -1.8164258   4.2507822  )
       485        O      tau( 485) = (  -1.9067320  -2.1689466   4.2661672  )
       486        H      tau( 486) = (  -1.8371450  -2.1740888   4.2795262  )
       487        H      tau( 487) = (  -1.9186033  -2.2342640   4.2476707  )
       488        O      tau( 488) = (  -1.6668930  -2.1385168   3.8266191  )
       489        H      tau( 489) = (  -1.6672371  -2.0918585   3.8778116  )
       490        H      tau( 490) = (  -1.7089439  -2.1147845   3.7784879  )
       491        O      tau( 491) = (  -1.1653367  -1.4383059   4.0002241  )
       492        H      tau( 492) = (  -1.1571569  -1.4888206   3.9606927  )
       493        H      tau( 493) = (  -1.1074227  -1.4201766   4.0310554  )

     number of k points=     1
                       cart. coord. in units 2pi/alat
        k(    1) = (   0.0000000   0.0000000   0.0000000), wk =   2.0000000

     Dense  grid:  3184389 G-vectors     FFT dimensions: ( 192, 200, 480)

     Estimated max dynamical RAM per process >     493.86 MB

     Estimated total dynamical RAM >      57.87 GB

     WARNING: libxc functional with ID  263 depends
      on external parameters: check the user_guide of
      QE if you need to modify them or to check their
      default values.

     Initial potential from superposition of free atoms

     starting charge    2103.6163, renormalised to    2104.0000
     Starting wfcs are 1530 randomized atomic wfcs

     total cpu time spent up to now is       34.0 secs

     Self-consistent Calculation

     iteration #  1     ecut=   110.00 Ry     beta= 0.50
     Davidson diagonalization with overlap
     ethr =  1.00E-02,  avg # of iterations =  2.0

     total cpu time spent up to now is      110.0 secs

     total energy              =  -11161.97378362 Ry
     estimated scf accuracy    <    4094.96962674 Ry

     iteration #  2     ecut=   110.00 Ry     beta= 0.50
     Davidson diagonalization with overlap
     ethr =  1.00E-02,  avg # of iterations =  2.0

     total cpu time spent up to now is      175.0 secs

     total energy              =  -11181.67251437 Ry
     estimated scf accuracy    <     542.00137316 Ry

     iteration #  3     ecut=   110.00 Ry     beta= 0.50
     Davidson diagonalization with overlap
     ethr =  1.00E-02,  avg # of iterations =  1.0

     total cpu time spent up to now is      228.1 secs

     total energy              =  -11183.28724259 Ry
     estimated scf accuracy    <      50.11693195 Ry

     iteration #  4     ecut=   110.00 Ry     beta= 0.50
     Davidson diagonalization with overlap
     ethr =  2.38E-03,  avg # of iterations =  1.0

     total cpu time spent up to now is      281.3 secs

     total energy              =  -11183.42682778 Ry
     estimated scf accuracy    <       0.82537270 Ry

     iteration #  5     ecut=   110.00 Ry     beta= 0.50
     Davidson diagonalization with overlap
     ethr =  3.92E-05,  avg # of iterations =  2.0

     total cpu time spent up to now is      336.8 secs

     total energy              =  -11183.46376703 Ry
     estimated scf accuracy    <       0.03469743 Ry

     iteration #  6     ecut=   110.00 Ry     beta= 0.50
     Davidson diagonalization with overlap
     ethr =  1.65E-06,  avg # of iterations =  3.0

     total cpu time spent up to now is      407.2 secs

     total energy              =  -11183.47015201 Ry
     estimated scf accuracy    <       0.00616398 Ry

     iteration #  7     ecut=   110.00 Ry     beta= 0.50
     Davidson diagonalization with overlap
     ethr =  2.93E-07,  avg # of iterations =  3.0

     total cpu time spent up to now is      471.9 secs

     total energy              =  -11183.47081553 Ry
     estimated scf accuracy    <       0.00227078 Ry

     iteration #  8     ecut=   110.00 Ry     beta= 0.50
     Davidson diagonalization with overlap
     ethr =  1.08E-07,  avg # of iterations =  2.0

     total cpu time spent up to now is      536.2 secs

     total energy              =  -11183.47102477 Ry
     estimated scf accuracy    <       0.00065109 Ry

     iteration #  9     ecut=   110.00 Ry     beta= 0.50
     Davidson diagonalization with overlap
     ethr =  3.09E-08,  avg # of iterations =  2.0

     total cpu time spent up to now is      594.7 secs

     total energy              =  -11183.47106917 Ry
     estimated scf accuracy    <       0.00006634 Ry

     iteration # 10     ecut=   110.00 Ry     beta= 0.50
     Davidson diagonalization with overlap
     ethr =  3.15E-09,  avg # of iterations =  2.0

     total cpu time spent up to now is      657.1 secs

     total energy              =  -11183.47107613 Ry
     estimated scf accuracy    <       0.00000791 Ry

     iteration # 11     ecut=   110.00 Ry     beta= 0.50
     Davidson diagonalization with overlap
     ethr =  3.76E-10,  avg # of iterations =  4.0

     total cpu time spent up to now is      732.3 secs

     total energy              =  -11183.47107782 Ry
     estimated scf accuracy    <       0.00000197 Ry

     iteration # 12     ecut=   110.00 Ry     beta= 0.50
     Davidson diagonalization with overlap
     ethr =  9.39E-11,  avg # of iterations =  2.0

     total cpu time spent up to now is      787.7 secs

     End of self-consistent calculation

          k = 0.0000 0.0000 0.0000 (398025 PWs)   bands (ev):

  -103.8959-103.7135-103.7009-103.6686-103.6246-103.6059-103.5933-103.5845
  -103.5807-103.5773-103.5279-103.4898-103.4652-103.3718-103.3623-102.7302
   -63.4643 -63.4428 -63.4269 -63.2902 -63.2775 -63.2623 -63.2588 -63.2180
   -63.2171 -63.2123 -63.2031 -63.2004 -63.1985 -63.1924 -63.1856 -63.1818
   -63.1632 -63.1559 -63.1510 -63.1486 -63.1414 -63.1390 -63.1373 -63.1327
   -63.1259 -63.1226 -63.1178 -63.1153 -63.1142 -63.1040 -63.0939 -63.0905
   -63.0787 -63.0739 -63.0644 -63.0609 -63.0316 -63.0250 -63.0073 -62.9890
   -62.9719 -62.9517 -62.9126 -62.9085 -62.8945 -62.3448 -62.3297 -62.2727
   -29.1714 -29.1357 -29.0501 -29.0344 -29.0086 -29.0015 -28.9845 -28.9738
   -28.9434 -28.8812 -28.8205 -28.8183 -28.7962 -28.4927 -28.3354 -28.3353
   -23.0592 -21.6079 -21.4575 -21.3624 -21.3462 -21.2528 -21.2338 -21.2174
   -21.1829 -21.1567 -21.1377 -21.0814 -21.0725 -21.0482 -20.9371 -20.9292
   -20.8712 -20.8583 -20.8400 -20.7814 -20.7580 -20.7504 -20.7294 -20.7143
   -20.6619 -20.6276 -20.6141 -20.6013 -20.5824 -20.5699 -20.5466 -20.5192
   -20.5122 -20.4964 -20.4919 -20.4908 -20.4785 -20.4767 -20.4327 -20.4203
   -20.4101 -20.3921 -20.3885 -20.3834 -20.3528 -20.3417 -20.3356 -20.3253
   -20.3117 -20.3023 -20.2975 -20.2781 -20.2298 -20.2272 -20.2009 -20.1860
   -20.1717 -20.1685 -20.1439 -20.1355 -20.1270 -20.1216 -20.1109 -20.0843
   -20.0819 -20.0762 -20.0735 -20.0594 -20.0329 -20.0261 -20.0143 -19.9995
   -19.9973 -19.9777 -19.9621 -19.9603 -19.9500 -19.9412 -19.9402 -19.9379
   -19.9199 -19.9146 -19.8946 -19.8863 -19.8676 -19.8589 -19.8549 -19.8398
   -19.8268 -19.8145 -19.7965 -19.7800 -19.7775 -19.7640 -19.7613 -19.7400
   -19.7264 -19.7223 -19.7151 -19.7006 -19.6962 -19.6795 -19.6582 -19.6479
   -19.6296 -19.6124 -19.5978 -19.5835 -19.5801 -19.5720 -19.5629 -19.5533
   -19.5365 -19.5305 -19.5251 -19.5165 -19.5148 -19.5076 -19.5037 -19.4980
   -19.4881 -19.4708 -19.4654 -19.4561 -19.4476 -19.4429 -19.4279 -19.4234
   -19.4099 -19.4052 -19.4001 -19.3901 -19.3827 -19.3765 -19.3491 -19.3413
   -19.3376 -19.3209 -19.3178 -19.3120 -19.3029 -19.2896 -19.2736 -19.2700
   -19.2638 -19.2522 -19.2441 -19.2350 -19.2193 -19.2139 -19.1996 -19.1848
   -19.1630 -19.1588 -19.1536 -19.1470 -19.1443 -19.1279 -19.1105 -19.1016
   -19.0974 -19.0887 -19.0746 -19.0666 -19.0522 -19.0423 -19.0361 -19.0335
   -19.0193 -19.0154 -19.0105 -18.9882 -18.9724 -18.9615 -18.9558 -18.9461
   -18.9344 -18.9281 -18.9236 -18.9085 -18.8791 -18.8762 -18.8605 -18.8410
   -18.8380 -18.8213 -18.8142 -18.7961 -18.7734 -18.7724 -18.7680 -18.7491
   -18.7421 -18.7186 -18.7075 -18.7019 -18.6978 -18.6777 -18.6555 -18.6439
   -18.6377 -18.6261 -18.6244 -18.6073 -18.5901 -18.5722 -18.5287 -18.5192
   -18.5123 -18.5049 -18.4865 -18.4715 -18.4587 -18.4492 -18.4466 -18.4259
   -18.3726 -18.3585 -18.3298 -18.3176 -18.2926 -18.2344 -18.1756 -18.0687
   -17.9915 -17.9729 -17.9340 -17.9261 -17.8627 -17.8413 -17.3803 -11.7635
   -11.7209 -11.7143 -11.6685 -11.6576 -11.6532 -11.6382 -11.6153 -11.6126
   -11.5983 -11.5932 -11.5922 -11.5717 -11.5646 -11.5579 -11.5490 -11.5486
   -11.5452 -11.5369 -11.5337 -11.5207 -11.5029 -11.4990 -11.4934 -11.4825
   -11.4816 -11.4791 -11.4482 -11.4434 -11.4327 -11.4288 -11.4087 -11.4075
   -11.4024 -11.3688 -11.3202 -11.3197 -11.3149 -11.3017 -11.0941 -11.0621
   -11.0156 -10.9733 -10.9445 -10.9436 -10.9020 -10.8814 -10.8636  -9.8472
    -9.6465  -9.5014  -9.3801  -9.3491  -9.2425  -9.1623  -9.0474  -9.0094
    -8.9774  -8.9300  -8.8485  -8.8086  -8.7753  -8.7301  -8.7201  -8.6605
    -8.5373  -8.5258  -8.4296  -8.3726  -8.3376  -8.3093  -8.2904  -8.2524
    -8.2035  -8.1586  -8.1367  -8.0731  -8.0557  -8.0396  -8.0300  -7.9859
    -7.9677  -7.8192  -7.7516  -7.7099  -7.5962  -7.5808  -7.5662  -7.4974
    -7.4706  -7.4639  -7.4515  -7.4394  -7.4129  -7.3954  -7.3788  -7.3050
    -7.2905  -7.2772  -7.2495  -7.2437  -7.1959  -7.1891  -7.1803  -7.1658
    -7.1270  -7.1186  -7.1051  -7.0954  -7.0895  -7.0654  -7.0602  -7.0469
    -7.0420  -7.0138  -7.0004  -6.9832  -6.9657  -6.9544  -6.9447  -6.9279
    -6.9224  -6.8950  -6.8734  -6.8636  -6.8490  -6.8301  -6.8143  -6.8073
    -6.7959  -6.7926  -6.7668  -6.7478  -6.7214  -6.6967  -6.6860  -6.6803
    -6.6721  -6.6605  -6.6486  -6.6253  -6.6125  -6.5885  -6.5818  -6.5528
    -6.5289  -6.5247  -6.5167  -6.4996  -6.4762  -6.4507  -6.4414  -6.4290
    -6.4208  -6.4016  -6.3834  -6.3807  -6.3789  -6.3725  -6.3683  -6.3635
    -6.3578  -6.3431  -6.3362  -6.3322  -6.3300  -6.3207  -6.3169  -6.3128
    -6.2850  -6.2780  -6.2651  -6.2601  -6.2506  -6.2433  -6.2332  -6.2257
    -6.2078  -6.1814  -6.1736  -6.1546  -6.1344  -6.1232  -6.1143  -6.1117
    -6.0953  -6.0721  -6.0657  -6.0548  -6.0460  -6.0301  -6.0231  -6.0058
    -5.9995  -5.9902  -5.9776  -5.9675  -5.9516  -5.9486  -5.9246  -5.9129
    -5.9063  -5.8956  -5.8809  -5.8705  -5.8671  -5.8427  -5.8304  -5.8172
    -5.7961  -5.7604  -5.7518  -5.7374  -5.7181  -5.7027  -5.6983  -5.6689
    -5.6349  -5.6108  -5.5938  -5.5630  -5.5452  -5.5148  -5.5056  -5.4790
    -5.4774  -5.4461  -5.4157  -5.3923  -5.3257  -5.3084  -5.3008  -5.2841
    -5.2629  -5.2393  -5.2351  -5.2160  -5.2026  -5.1760  -5.1655  -5.1285
    -5.1223  -5.0854  -5.0675  -5.0530  -5.0434  -5.0242  -5.0082  -4.9894
    -4.9699  -4.9486  -4.9364  -4.9163  -4.9109  -4.9019  -4.8698  -4.8432
    -4.8379  -4.8038  -4.7949  -4.7658  -4.7406  -4.7255  -4.7139  -4.7017
    -4.6730  -4.6651  -4.6438  -4.5829  -4.5376  -4.5305  -4.5167  -4.4872
    -4.4833  -4.4717  -4.4590  -4.4547  -4.4272  -4.4204  -4.4009  -4.3788
    -4.3491  -4.3453  -4.3306  -4.3247  -4.2849  -4.2668  -4.2461  -4.2258
    -4.2069  -4.2022  -4.1904  -4.1782  -4.1668  -4.1209  -4.1093  -4.0895
    -4.0761  -4.0616  -4.0439  -4.0348  -4.0093  -4.0016  -3.9736  -3.9527
    -3.9445  -3.9268  -3.9260  -3.9090  -3.9071  -3.8964  -3.8884  -3.8634
    -3.8618  -3.8480  -3.8370  -3.8308  -3.8089  -3.8027  -3.7917  -3.7669
    -3.7503  -3.7388  -3.7306  -3.7250  -3.7115  -3.6965  -3.6927  -3.6874
    -3.6786  -3.6646  -3.6591  -3.6468  -3.6268  -3.6248  -3.6016  -3.5987
    -3.5896  -3.5819  -3.5683  -3.5579  -3.5478  -3.5361  -3.5148  -3.5115
    -3.5090  -3.4864  -3.4824  -3.4733  -3.4595  -3.4489  -3.4459  -3.4392
    -3.4264  -3.4180  -3.4047  -3.3908  -3.3885  -3.3808  -3.3684  -3.3577
    -3.3462  -3.3373  -3.3255  -3.3132  -3.3003  -3.2919  -3.2827  -3.2810
    -3.2649  -3.2565  -3.2425  -3.2323  -3.2264  -3.2165  -3.2103  -3.2046
    -3.1972  -3.1823  -3.1752  -3.1699  -3.1552  -3.1475  -3.1359  -3.1315
    -3.1258  -3.1239  -3.1107  -3.0979  -3.0884  -3.0851  -3.0746  -3.0701
    -3.0573  -3.0402  -3.0353  -3.0195  -3.0180  -3.0072  -2.9931  -2.9883
    -2.9793  -2.9722  -2.9581  -2.9562  -2.9511  -2.9395  -2.9305  -2.9200
    -2.9188  -2.9052  -2.8968  -2.8791  -2.8754  -2.8738  -2.8628  -2.8572
    -2.8443  -2.8417  -2.8300  -2.8165  -2.8096  -2.8070  -2.7916  -2.7770
    -2.7631  -2.7567  -2.7539  -2.7511  -2.7296  -2.7230  -2.7117  -2.7083
    -2.6935  -2.6862  -2.6769  -2.6740  -2.6497  -2.6397  -2.6258  -2.6245
    -2.6164  -2.6074  -2.6041  -2.5970  -2.5836  -2.5744  -2.5685  -2.5595
    -2.5518  -2.5479  -2.5310  -2.5231  -2.5149  -2.5085  -2.5001  -2.4934
    -2.4884  -2.4815  -2.4652  -2.4575  -2.4524  -2.4372  -2.4316  -2.4284
    -2.4089  -2.4010  -2.3892  -2.3876  -2.3808  -2.3770  -2.3620  -2.3583
    -2.3433  -2.3387  -2.3341  -2.3199  -2.3149  -2.3145  -2.2987  -2.2953
    -2.2864  -2.2604  -2.2446  -2.2415  -2.2327  -2.2297  -2.2136  -2.2027
    -2.1949  -2.1858  -2.1831  -2.1773  -2.1683  -2.1480  -2.1339  -2.1285
    -2.1141  -2.1110  -2.0951  -2.0823  -2.0774  -2.0739  -2.0634  -2.0537
    -2.0498  -2.0460  -2.0299  -2.0183  -2.0165  -2.0030  -2.0004  -1.9891
    -1.9865  -1.9756  -1.9695  -1.9625  -1.9579  -1.9485  -1.9444  -1.9265
    -1.9152  -1.9114  -1.9038  -1.8987  -1.8846  -1.8783  -1.8690  -1.8610
    -1.8527  -1.8472  -1.8299  -1.8237  -1.8115  -1.8007  -1.7909  -1.7904
    -1.7810  -1.7774  -1.7730  -1.7599  -1.7574  -1.7509  -1.7439  -1.7399
    -1.7350  -1.7206  -1.7072  -1.7050  -1.7040  -1.6998  -1.6955  -1.6940
    -1.6854  -1.6663  -1.6635  -1.6485  -1.6445  -1.6402  -1.6337  -1.6284
    -1.6192  -1.6104  -1.6012  -1.5968  -1.5839  -1.5766  -1.5744  -1.5572
    -1.5482  -1.5410  -1.5280  -1.5162  -1.5111  -1.5041  -1.4972  -1.4857
    -1.4822  -1.4795  -1.4657  -1.4591  -1.4500  -1.4433  -1.4385  -1.4287
    -1.4166  -1.4117  -1.4021  -1.3939  -1.3880  -1.3753  -1.3744  -1.3683
    -1.3591  -1.3568  -1.3443  -1.3370  -1.3292  -1.3240  -1.3118  -1.3032
    -1.3017  -1.2875  -1.2836  -1.2763  -1.2630  -1.2546  -1.2518  -1.2459
    -1.2381  -1.2288  -1.2263  -1.2198  -1.2018  -1.1974  -1.1929  -1.1862
    -1.1815  -1.1724  -1.1702  -1.1583  -1.1504  -1.1447  -1.1383  -1.1285
    -1.1222  -1.1174  -1.1100  -1.1047  -1.0997  -1.0948  -1.0871  -1.0827
    -1.0759  -1.0687  -1.0573  -1.0550  -1.0487  -1.0336  -1.0284  -1.0222
    -1.0153  -1.0001  -0.9929  -0.9911  -0.9805  -0.9770  -0.9702  -0.9675
    -0.9637  -0.9488  -0.9444  -0.9390  -0.9340  -0.9269  -0.9207  -0.9153
    -0.9058  -0.9016  -0.8927  -0.8738  -0.8716  -0.8604  -0.8584  -0.8507
    -0.8435  -0.8327  -0.8246  -0.8170  -0.8114  -0.8083  -0.8002  -0.7944
    -0.7853  -0.7765  -0.7749  -0.7499  -0.7399  -0.7346  -0.7319  -0.7304
    -0.7263  -0.7163  -0.7109  -0.6943  -0.6800  -0.6719  -0.6663  -0.6635
    -0.6531  -0.6449  -0.6410  -0.6396  -0.6237  -0.6156  -0.6071  -0.5956
    -0.5801  -0.5733  -0.5656  -0.5585  -0.5397  -0.5326  -0.5228  -0.5205
    -0.4905  -0.4814  -0.4757  -0.4689  -0.4659  -0.4490  -0.4387  -0.4317
    -0.4291  -0.4210  -0.3962  -0.3954  -0.3808  -0.3729  -0.3556  -0.3460
    -0.3321  -0.3187  -0.2943  -0.2805  -0.2478  -0.2192  -0.1944  -0.1672
    -0.1550  -0.1032  -0.0779  -0.0444   0.0616   0.0859   0.1197   0.2935
     0.3680   0.5880   0.6907   1.8770

     highest occupied level (ev):     1.8770

!    total energy              =  -11183.47107792 Ry
     estimated scf accuracy    <       0.00000020 Ry

     The total energy is the sum of the following terms:
     one-electron contribution =  -20718.07168528 Ry
     hartree contribution      =   11003.23602688 Ry
     xc contribution           =   -2314.71420898 Ry
     ewald contribution        =     846.07878945 Ry

     convergence has been achieved in  12 iterations

     Forces acting on atoms (cartesian axes, Ry/au):

     atom    1 type  1   force =    -0.00383934    0.00950268   -0.00707955
     atom    2 type  2   force =    -0.01313696    0.04621281    0.00061555
     atom    3 type  3   force =     0.00429613    0.04343709    0.02182686
     atom    4 type  3   force =    -0.03834762    0.02400932   -0.02916272
     atom    5 type  3   force =    -0.02225756    0.07089960    0.01964766
     atom    6 type  3   force =    -0.07620297   -0.03383542    0.02803261
     atom    7 type  3   force =     0.03538602   -0.02932215   -0.00966963
     atom    8 type  3   force =     0.00673329   -0.01601806   -0.02553256
     atom    9 type  4   force =     0.08803504   -0.00730365   -0.00389998
     atom   10 type  4   force =     0.00004527   -0.01166556   -0.00955097
     atom   11 type  4   force =     0.00397702   -0.03262608    0.00357295
     atom   12 type  4   force =     0.05660806   -0.00179144   -0.05022765
     atom   13 type  4   force =    -0.02887000    0.03918686   -0.01794793
     atom   14 type  4   force =    -0.01432572   -0.02853527    0.04907140
     atom   15 type  4   force =     0.01389453    0.05767141    0.01640093
     atom   16 type  4   force =    -0.01998309    0.00490296    0.00068001
     atom   17 type  4   force =     0.03357228   -0.05444241    0.00362789
     atom   18 type  4   force =     0.01426473    0.02622426    0.02035126
     atom   19 type  4   force =     0.05261275   -0.01021620   -0.02341816
     atom   20 type  4   force =    -0.00184019   -0.05037942    0.03619174
     atom   21 type  4   force =     0.00922831   -0.03036637   -0.00441702
     atom   22 type  4   force =     0.01209064    0.00996181   -0.00720192
     atom   23 type  2   force =    -0.01630311   -0.04387296   -0.02655248
     atom   24 type  3   force =    -0.02934656   -0.04871935    0.03184546
     atom   25 type  3   force =     0.06196714    0.01351146   -0.02273241
     atom   26 type  4   force =    -0.03780573   -0.00320067    0.00589074
     atom   27 type  4   force =     0.00369626    0.04235876   -0.03708868
     atom   28 type  4   force =     0.00433274   -0.01903894    0.05638202
     atom   29 type  4   force =     0.06022246    0.03443400   -0.02716462
     atom   30 type  4   force =     0.06942064    0.07871171    0.15308936
     atom   31 type  4   force =     0.01031530    0.02389425    0.05459111
     atom   32 type  4   force =     0.00796473    0.02165654    0.01856668
     atom   33 type  4   force =    -0.02056633    0.02902372   -0.01695360
     atom   34 type  4   force =     0.02243829    0.00248766    0.00159935
     atom   35 type  4   force =    -0.00646253   -0.02073203    0.01158539
     atom   36 type  2   force =    -0.03337917    0.01875902    0.00579134
     atom   37 type  3   force =    -0.02089742   -0.03506715    0.06024596
     atom   38 type  3   force =    -0.01781232    0.01425921    0.00140895
     atom   39 type  4   force =    -0.03153248   -0.00385250    0.01142084
     atom   40 type  4   force =    -0.00306930    0.01518379   -0.00276001
     atom   41 type  4   force =     0.02206209   -0.00245577   -0.03736132
     atom   42 type  4   force =     0.01117398    0.04042509   -0.02173840
     atom   43 type  4   force =    -0.01312671   -0.00801214    0.01637515
     atom   44 type  4   force =     0.03622957   -0.02509598   -0.03719499
     atom   45 type  4   force =    -0.02451530    0.00616830    0.00286453
     atom   46 type  4   force =    -0.01600521    0.00150579    0.01876515
     atom   47 type  1   force =     0.01317404   -0.01274090    0.00265570
     atom   48 type  1   force =     0.00289092   -0.00134392   -0.01117075
     atom   49 type  1   force =     0.01334140   -0.01172646    0.00361771
     atom   50 type  2   force =     0.03242705   -0.06315073    0.02158714
     atom   51 type  3   force =    -0.06959369    0.05745294    0.02639478
     atom   52 type  3   force =     0.01554274    0.04746957    0.00119699
     atom   53 type  3   force =    -0.03059604   -0.02072602    0.01665133
     atom   54 type  3   force =    -0.02623816    0.06787348   -0.00272233
     atom   55 type  3   force =     0.02538663    0.00121717   -0.01987208
     atom   56 type  3   force =    -0.06818753    0.00780134   -0.04265216
     atom   57 type  4   force =    -0.00441998   -0.03766204    0.00350546
     atom   58 type  4   force =     0.00956246    0.01290024   -0.03580358
     atom   59 type  4   force =     0.00468275   -0.01149398    0.00572538
     atom   60 type  4   force =     0.02221627   -0.06119156   -0.06886639
     atom   61 type  4   force =     0.04279834    0.01255293   -0.06401451
     atom   62 type  4   force =    -0.00405402   -0.00035401   -0.01710489
     atom   63 type  4   force =    -0.01820971   -0.00301662   -0.03175783
     atom   64 type  4   force =     0.03410188    0.02926226   -0.04040162
     atom   65 type  4   force =    -0.04097587    0.04428933    0.01707247
     atom   66 type  4   force =     0.00704565    0.02284063    0.06602994
     atom   67 type  4   force =     0.02335927   -0.07593410    0.02660837
     atom   68 type  4   force =    -0.01555735   -0.05887274   -0.00082651
     atom   69 type  4   force =    -0.04270372    0.01109787    0.00691559
     atom   70 type  4   force =     0.00969972    0.04042008   -0.01361468
     atom   71 type  4   force =     0.04157972   -0.00921426    0.06046269
     atom   72 type  4   force =     0.02410497   -0.01370212    0.00026690
     atom   73 type  1   force =     0.01423350   -0.00808644   -0.00002456
     atom   74 type  2   force =    -0.01747199   -0.03507557   -0.03990209
     atom   75 type  2   force =    -0.06616277   -0.04400463   -0.07492399
     atom   76 type  3   force =     0.03130172   -0.00834630   -0.03644312
     atom   77 type  3   force =     0.02892761    0.00949095    0.02070913
     atom   78 type  3   force =    -0.10035991    0.02884496    0.05702661
     atom   79 type  3   force =    -0.01017413    0.02305975    0.00959038
     atom   80 type  3   force =     0.03075851    0.05946647    0.06615736
     atom   81 type  3   force =    -0.08555832    0.00503184    0.04585939
     atom   82 type  4   force =     0.00301970    0.02235289   -0.00027740
     atom   83 type  4   force =    -0.02216659   -0.00242007   -0.02603636
     atom   84 type  4   force =     0.01029583    0.04624542   -0.01226313
     atom   85 type  4   force =     0.00530298   -0.00258943   -0.05866748
     atom   86 type  4   force =     0.01439353   -0.02709074    0.03938349
     atom   87 type  4   force =    -0.01121297    0.00919051    0.00320043
     atom   88 type  4   force =    -0.02582495   -0.01675487   -0.00121821
     atom   89 type  4   force =     0.00255852    0.04465781    0.03720765
     atom   90 type  4   force =     0.02217048   -0.04269183   -0.07661726
     atom   91 type  4   force =    -0.00542484    0.04621813   -0.02083427
     atom   92 type  4   force =     0.02432880    0.05764716   -0.00867249
     atom   93 type  4   force =     0.00050900    0.00229653   -0.01349847
     atom   94 type  4   force =     0.05484895    0.00483929    0.01779029
     atom   95 type  4   force =     0.03990707   -0.01610848    0.02310776
     atom   96 type  4   force =    -0.05776985   -0.01903874   -0.04407334
     atom   97 type  1   force =    -0.00460747   -0.00081495   -0.00680087
     atom   98 type  1   force =     0.00140136    0.00480739   -0.00330795
     atom   99 type  1   force =     0.00109856   -0.00019395    0.00943130
     atom  100 type  2   force =     0.04334297    0.03469020    0.09889192
     atom  101 type  2   force =    -0.02278414    0.00543127   -0.04794740
     atom  102 type  3   force =    -0.00229536   -0.00231327    0.00749586
     atom  103 type  3   force =    -0.00820131    0.01404722    0.01283742
     atom  104 type  3   force =     0.04323913   -0.06589963    0.01145613
     atom  105 type  3   force =    -0.05847853    0.00549511   -0.00201671
     atom  106 type  3   force =    -0.06443478   -0.03522049   -0.02595018
     atom  107 type  3   force =     0.00733277   -0.00893442   -0.04710696
     atom  108 type  4   force =    -0.04185362   -0.01546093   -0.01815018
     atom  109 type  4   force =     0.05045579   -0.03165488    0.00529268
     atom  110 type  4   force =     0.00396206    0.00948481    0.04681081
     atom  111 type  4   force =     0.01671211    0.01855198    0.01170500
     atom  112 type  4   force =     0.01115933    0.02336063   -0.00261479
     atom  113 type  4   force =     0.02917490    0.02124251   -0.01037917
     atom  114 type  4   force =     0.01303188   -0.00788439   -0.00462447
     atom  115 type  4   force =    -0.00593376   -0.01168853   -0.00796749
     atom  116 type  4   force =    -0.00889755   -0.01854751   -0.00356147
     atom  117 type  4   force =    -0.01465684   -0.06367565   -0.00094051
     atom  118 type  4   force =     0.00310382    0.03398394   -0.00520899
     atom  119 type  4   force =    -0.01654248   -0.00776454   -0.01363542
     atom  120 type  4   force =    -0.03235709    0.04199878    0.01434807
     atom  121 type  4   force =     0.06450039   -0.01602913    0.04192918
     atom  122 type  4   force =     0.01085153    0.00905134    0.01113794
     atom  123 type  4   force =    -0.04256157    0.01497218   -0.01658446
     atom  124 type  4   force =     0.00532865   -0.00783208   -0.00293659
     atom  125 type  5   force =     0.00231965   -0.02468218   -0.01299238
     atom  126 type  5   force =     0.01264691   -0.01410277    0.00577303
     atom  127 type  5   force =    -0.03471088    0.01872289    0.01865466
     atom  128 type  5   force =    -0.01035758   -0.00650865   -0.00490533
     atom  129 type  5   force =     0.01319997    0.00917207   -0.01750290
     atom  130 type  5   force =     0.02139544   -0.00137193    0.02935539
     atom  131 type  5   force =     0.04055523   -0.05501137    0.02099143
     atom  132 type  5   force =     0.01426036    0.01712379    0.00355735
     atom  133 type  5   force =     0.01675262   -0.05306433    0.01751012
     atom  134 type  5   force =    -0.02500473   -0.03937976   -0.01606606
     atom  135 type  5   force =    -0.01630768   -0.01588493    0.00898704
     atom  136 type  5   force =    -0.02006628   -0.00612525    0.04652763
     atom  137 type  5   force =    -0.02346590   -0.02087814   -0.01653157
     atom  138 type  5   force =    -0.02648523    0.01113101    0.01439513
     atom  139 type  5   force =    -0.00531348   -0.01630039   -0.02459546
     atom  140 type  5   force =    -0.03632666   -0.00404679    0.00976358
     atom  141 type  1   force =     0.02346004    0.02326082   -0.00126789
     atom  142 type  2   force =    -0.04985953   -0.02954836   -0.02850508
     atom  143 type  3   force =     0.00179099   -0.00528609   -0.04139049
     atom  144 type  3   force =     0.00651615   -0.01815148   -0.02085582
     atom  145 type  3   force =     0.04922781    0.01776617   -0.10095769
     atom  146 type  3   force =     0.02665700   -0.04696866    0.02435393
     atom  147 type  3   force =     0.01792431   -0.02982132   -0.02518087
     atom  148 type  3   force =     0.07542413   -0.03083886   -0.07106291
     atom  149 type  4   force =    -0.03204012    0.01327677   -0.01406023
     atom  150 type  4   force =    -0.02718379   -0.06354605   -0.01839393
     atom  151 type  4   force =    -0.06018568    0.02090920    0.02986459
     atom  152 type  4   force =     0.01021208   -0.00230926    0.02495498
     atom  153 type  4   force =    -0.01826657    0.01370567   -0.00516018
     atom  154 type  4   force =    -0.02514166   -0.01822155    0.01378789
     atom  155 type  4   force =    -0.03704568   -0.02163181    0.06005503
     atom  156 type  4   force =    -0.01029939    0.02483831    0.03280601
     atom  157 type  4   force =     0.00559489    0.05736333   -0.00841727
     atom  158 type  4   force =     0.00025856   -0.00621548    0.08516291
     atom  159 type  4   force =     0.01254930    0.03053526    0.00261905
     atom  160 type  4   force =    -0.04074109    0.03757213    0.00574242
     atom  161 type  4   force =     0.02427081    0.02328716    0.05432315
     atom  162 type  4   force =    -0.01128935   -0.01557581   -0.01113335
     atom  163 type  2   force =     0.01651298    0.02581787   -0.03142953
     atom  164 type  3   force =    -0.05104906    0.02516752   -0.03426687
     atom  165 type  3   force =    -0.03916417    0.01961470   -0.02332070
     atom  166 type  4   force =    -0.05412118    0.00833410    0.00348324
     atom  167 type  4   force =    -0.19593495    0.30908882    0.49818507
     atom  168 type  4   force =     0.04449703    0.02927013    0.06440664
     atom  169 type  4   force =    -0.00228279    0.02253885    0.04633490
     atom  170 type  4   force =     0.00235450    0.00191118    0.04126891
     atom  171 type  4   force =     0.02474653   -0.02000324   -0.00579706
     atom  172 type  4   force =     0.02040119    0.00762616    0.02938613
     atom  173 type  4   force =     0.02888109   -0.02339029    0.01797961
     atom  174 type  4   force =     0.04422303   -0.00217090   -0.04870618
     atom  175 type  4   force =     0.02028397   -0.02196280   -0.00104134
     atom  176 type  2   force =     0.00708596    0.01571625   -0.08095972
     atom  177 type  3   force =    -0.00770154   -0.02304673   -0.00025286
     atom  178 type  3   force =    -0.02128297    0.02366145   -0.04293289
     atom  179 type  4   force =     0.16499928   -0.04045855    0.00640064
     atom  180 type  4   force =     0.00110377   -0.01496922    0.01917663
     atom  181 type  4   force =     0.02655240    0.00293122    0.00480845
     atom  182 type  4   force =     0.02989979   -0.01171094   -0.01803155
     atom  183 type  4   force =    -0.00519222   -0.01404342    0.01623493
     atom  184 type  4   force =    -0.02407233    0.02891047   -0.01069545
     atom  185 type  4   force =     0.03964681   -0.05898098    0.03711342
     atom  186 type  4   force =    -0.05595736   -0.01665332    0.04901099
     atom  187 type  1   force =    -0.00569413    0.00897587   -0.03185109
     atom  188 type  1   force =     0.01058395    0.00428823    0.00026108
     atom  189 type  1   force =     0.00071010   -0.00187198   -0.00386976
     atom  190 type  2   force =     0.00350375    0.04410058    0.04095688
     atom  191 type  3   force =     0.03537028   -0.02552650    0.06329757
     atom  192 type  3   force =     0.00327798   -0.00620833   -0.04838689
     atom  193 type  3   force =    -0.05316538    0.02354532   -0.02982832
     atom  194 type  3   force =    -0.01818873    0.06104792   -0.01344987
     atom  195 type  3   force =    -0.02590208   -0.00757109    0.04106453
     atom  196 type  3   force =    -0.00474793   -0.05788615    0.07382917
     atom  197 type  4   force =    -0.04745188    0.01704593    0.00096249
     atom  198 type  4   force =    -0.01865709    0.06733355    0.01841190
     atom  199 type  4   force =    -0.00188555    0.08687603    0.02240049
     atom  200 type  4   force =    -0.01271967   -0.03174337   -0.00980271
     atom  201 type  4   force =     0.05366204    0.01137885   -0.04329617
     atom  202 type  4   force =    -0.01769286   -0.00969460   -0.01233166
     atom  203 type  4   force =     0.01862929    0.02388918   -0.07383618
     atom  204 type  4   force =    -0.00012371    0.03723947   -0.01968756
     atom  205 type  4   force =    -0.02064048    0.02439874   -0.03762697
     atom  206 type  4   force =     0.01854084   -0.02515911    0.00226878
     atom  207 type  4   force =     0.01542384   -0.04966234    0.03174798
     atom  208 type  4   force =    -0.01149121   -0.06120319    0.01249617
     atom  209 type  4   force =    -0.06727012   -0.01847006    0.04123920
     atom  210 type  4   force =     0.01560911    0.00248169   -0.01271970
     atom  211 type  4   force =    -0.02161226   -0.01779699   -0.00520421
     atom  212 type  4   force =     0.07089416    0.00016702    0.06741757
     atom  213 type  1   force =     0.00048806   -0.00694551    0.00162529
     atom  214 type  2   force =    -0.02621369   -0.05934726   -0.01592579
     atom  215 type  2   force =     0.06065560   -0.00782212   -0.04809513
     atom  216 type  3   force =    -0.10287732   -0.01217832   -0.01519710
     atom  217 type  3   force =    -0.03491795    0.01913184    0.03630491
     atom  218 type  3   force =    -0.02813773   -0.03460285    0.00147492
     atom  219 type  3   force =     0.01770587    0.02331936   -0.03635485
     atom  220 type  3   force =    -0.01668748    0.01487819    0.02029241
     atom  221 type  3   force =     0.00421519    0.05085942    0.00658037
     atom  222 type  4   force =    -0.00572478    0.00721116    0.01010766
     atom  223 type  4   force =     0.12917889    0.00112632   -0.01266492
     atom  224 type  4   force =     0.00529559   -0.02546410    0.02355068
     atom  225 type  4   force =    -0.05750294   -0.01411175    0.06457845
     atom  226 type  4   force =    -0.05708868   -0.02041104    0.07869137
     atom  227 type  4   force =     0.00837895    0.01071541   -0.01947147
     atom  228 type  4   force =    -0.00536923   -0.00298992   -0.00761538
     atom  229 type  4   force =     0.00398721    0.00989383   -0.03121806
     atom  230 type  4   force =    -0.01127345    0.00820305    0.01072842
     atom  231 type  4   force =    -0.00933414    0.00519526    0.00216596
     atom  232 type  4   force =    -0.00835399    0.05403139   -0.04343197
     atom  233 type  4   force =     0.03626437   -0.00442756    0.01154580
     atom  234 type  4   force =    -0.01879647   -0.01003089    0.00289194
     atom  235 type  4   force =     0.02985623   -0.00066090   -0.00386304
     atom  236 type  4   force =     0.00844289   -0.01620335    0.02953977
     atom  237 type  1   force =     0.00072104    0.00605622   -0.01814130
     atom  238 type  1   force =     0.00822531   -0.01967885   -0.00584455
     atom  239 type  1   force =    -0.01008238    0.00383972    0.01989709
     atom  240 type  2   force =     0.04264192    0.03432806    0.04515489
     atom  241 type  2   force =     0.01404166    0.02608567   -0.00261850
     atom  242 type  3   force =     0.07072360   -0.02479668   -0.06841378
     atom  243 type  3   force =    -0.06223401    0.09063677   -0.04481023
     atom  244 type  3   force =     0.01750298    0.00641316   -0.00285511
     atom  245 type  3   force =     0.00569773   -0.01835628   -0.04981882
     atom  246 type  3   force =    -0.06863453   -0.03107785   -0.07236661
     atom  247 type  3   force =    -0.04275712   -0.00325399   -0.01732577
     atom  248 type  4   force =    -0.05880363    0.01206445   -0.00410860
     atom  249 type  4   force =     0.10721345   -0.01622282    0.02368231
     atom  250 type  4   force =    -0.02701499   -0.02940270    0.00628849
     atom  251 type  4   force =     0.00801406   -0.01547043    0.01789303
     atom  252 type  4   force =     0.01527008    0.02549335    0.04219230
     atom  253 type  4   force =    -0.00525540   -0.00513678    0.02229827
     atom  254 type  4   force =    -0.04655141   -0.01010617    0.05983680
     atom  255 type  4   force =     0.00932768    0.04576892   -0.03178215
     atom  256 type  4   force =     0.00783861    0.00466378    0.00405013
     atom  257 type  4   force =    -0.00069056   -0.01301561   -0.00440707
     atom  258 type  4   force =     0.02722930   -0.00105272    0.03328991
     atom  259 type  4   force =    -0.04075123    0.04854537   -0.00915409
     atom  260 type  4   force =    -0.00521311   -0.02378588   -0.01609637
     atom  261 type  4   force =     0.03818603   -0.00945333    0.00681025
     atom  262 type  4   force =    -0.02182888    0.00844766   -0.00575564
     atom  263 type  4   force =     0.01630178   -0.00894095    0.03849819
     atom  264 type  4   force =     0.01777399   -0.01917497    0.06154751
     atom  265 type  5   force =     0.01322795    0.00480943   -0.00789209
     atom  266 type  5   force =     0.00613185    0.02002339    0.01266091
     atom  267 type  5   force =     0.01025161   -0.04799965   -0.03409319
     atom  268 type  5   force =     0.01777673    0.01844908   -0.03039875
     atom  269 type  5   force =     0.00942855    0.02085067    0.04711816
     atom  270 type  5   force =    -0.01153133   -0.00178416    0.01733527
     atom  271 type  5   force =     0.02017367   -0.03375618   -0.00747466
     atom  272 type  5   force =     0.04587828    0.01548019   -0.05067394
     atom  273 type  5   force =     0.00930699   -0.04069231    0.02175373
     atom  274 type  5   force =     0.01939705    0.02584795   -0.01969557
     atom  275 type  5   force =     0.01279499   -0.00070134    0.00001898
     atom  276 type  5   force =     0.05459015    0.06354919    0.06707317
     atom  277 type  5   force =    -0.07260715   -0.04287931   -0.02235862
     atom  278 type  5   force =     0.00187673    0.00826978   -0.01377682
     atom  279 type  5   force =     0.00448613    0.00064681    0.00608928
     atom  280 type  5   force =    -0.01941802   -0.00662575    0.03268404
     atom  281 type  4   force =     0.04986171   -0.04235188   -0.02238731
     atom  282 type  5   force =    -0.02032956    0.04452409   -0.00161128
     atom  283 type  5   force =    -0.01580950   -0.01123276    0.02607846
     atom  284 type  4   force =    -0.09337570   -0.02728656    0.01688163
     atom  285 type  5   force =     0.04359642    0.04309314   -0.04313382
     atom  286 type  5   force =     0.04891355   -0.01941922    0.03863491
     atom  287 type  4   force =    -0.02272841   -0.00358459    0.00691881
     atom  288 type  5   force =     0.01254822   -0.01364998    0.00874932
     atom  289 type  5   force =     0.00370418    0.02716543    0.00008681
     atom  290 type  4   force =    -0.03762592   -0.08049344    0.04890926
     atom  291 type  5   force =     0.04060957    0.00124690   -0.01553430
     atom  292 type  5   force =    -0.02170846    0.07941242   -0.02478869
     atom  293 type  4   force =     0.00945448   -0.02464629   -0.01155637
     atom  294 type  5   force =     0.01077477    0.01591808    0.00453226
     atom  295 type  5   force =    -0.03014964    0.01277591    0.01808556
     atom  296 type  4   force =     0.02117638    0.00661270    0.00484080
     atom  297 type  5   force =    -0.00069364   -0.00086034   -0.00764451
     atom  298 type  5   force =    -0.00724951    0.01220099    0.00245488
     atom  299 type  4   force =     0.03323010   -0.02500178    0.01863966
     atom  300 type  5   force =    -0.03559753    0.01640769   -0.04548202
     atom  301 type  5   force =     0.00125435    0.00153270    0.01062110
     atom  302 type  4   force =     0.05204136   -0.00016938   -0.08613891
     atom  303 type  5   force =    -0.00062372   -0.02445614    0.10192328
     atom  304 type  5   force =    -0.03495512    0.02362658    0.00212455
     atom  305 type  4   force =     0.03899428    0.02794157   -0.02895357
     atom  306 type  5   force =    -0.04560679    0.02335336    0.01216724
     atom  307 type  5   force =    -0.00955974   -0.04611436    0.00980481
     atom  308 type  4   force =     0.06231991    0.02537604    0.01937808
     atom  309 type  5   force =    -0.02938409   -0.02923434   -0.04159922
     atom  310 type  5   force =    -0.01302281    0.00306024    0.01911903
     atom  311 type  4   force =     0.08040475    0.00486465   -0.01734522
     atom  312 type  5   force =    -0.07652951    0.01022248    0.02127592
     atom  313 type  5   force =    -0.00238860   -0.00922916   -0.01265533
     atom  314 type  4   force =    -0.00583275    0.03004252   -0.01536097
     atom  315 type  5   force =     0.01110105    0.00751276    0.01492194
     atom  316 type  5   force =    -0.00288146   -0.00565598    0.00978999
     atom  317 type  4   force =    -0.01413990    0.02211751    0.00758065
     atom  318 type  5   force =     0.00510580   -0.02579753   -0.02230137
     atom  319 type  5   force =    -0.00056300    0.01115571    0.00848246
     atom  320 type  4   force =     0.06567587   -0.01961038    0.02510047
     atom  321 type  5   force =    -0.02256976   -0.02166062   -0.03359327
     atom  322 type  5   force =    -0.03352395    0.00992805   -0.00180722
     atom  323 type  4   force =     0.01688709   -0.02310943    0.03841623
     atom  324 type  5   force =     0.01055804    0.00979894    0.02201058
     atom  325 type  5   force =    -0.01063195    0.00284093   -0.06545002
     atom  326 type  4   force =     0.00210751   -0.00233037   -0.05297199
     atom  327 type  5   force =    -0.01508088   -0.01830128    0.02975963
     atom  328 type  5   force =     0.02259915    0.00333254    0.04146436
     atom  329 type  4   force =    -0.04234026   -0.11579906   -0.17334654
     atom  330 type  5   force =    -0.00920592    0.01118150   -0.02072141
     atom  331 type  5   force =    -0.02578313    0.02107402   -0.04239128
     atom  332 type  4   force =     0.11502097   -0.36126255   -0.52208918
     atom  333 type  5   force =     0.03788922    0.01536107   -0.10295029
     atom  334 type  5   force =    -0.02143208   -0.01131329    0.00974166
     atom  335 type  4   force =    -0.00423895   -0.06399432   -0.01902770
     atom  336 type  5   force =     0.00222108    0.03990829   -0.00513900
     atom  337 type  5   force =     0.00218678    0.02929499    0.03388381
     atom  338 type  4   force =    -0.06062343   -0.02162984   -0.10756130
     atom  339 type  5   force =     0.05414314    0.00889050    0.05207563
     atom  340 type  5   force =     0.01594432   -0.00148148   -0.02037848
     atom  341 type  4   force =     0.01631517    0.00761338    0.06475079
     atom  342 type  5   force =    -0.00686312   -0.02082086    0.02925719
     atom  343 type  5   force =    -0.00626140    0.00057559   -0.08740905
     atom  344 type  4   force =    -0.01026149   -0.01235145    0.03068563
     atom  345 type  5   force =    -0.01265095    0.01987530   -0.00913571
     atom  346 type  5   force =     0.00097822    0.00380361   -0.02472418
     atom  347 type  4   force =    -0.07073854    0.08635761   -0.07071039
     atom  348 type  5   force =    -0.00396160   -0.11083843   -0.00725508
     atom  349 type  5   force =     0.04917416    0.03915958    0.07054256
     atom  350 type  4   force =    -0.02763939    0.03194229    0.04682328
     atom  351 type  5   force =     0.02585642   -0.01807161   -0.02077023
     atom  352 type  5   force =     0.00026876   -0.00834581   -0.00019150
     atom  353 type  4   force =    -0.02088899    0.02115725   -0.04149955
     atom  354 type  5   force =     0.02224469   -0.04073834    0.02639913
     atom  355 type  5   force =     0.01209104    0.01834155    0.00392721
     atom  356 type  4   force =     0.02600660   -0.03659099    0.00255096
     atom  357 type  5   force =    -0.00978620    0.02823172   -0.00669583
     atom  358 type  5   force =    -0.01560173    0.00577471    0.00047251
     atom  359 type  4   force =    -0.03137724    0.01137280    0.10406096
     atom  360 type  5   force =     0.04395156   -0.00786344   -0.07391067
     atom  361 type  5   force =    -0.00911000    0.00490725   -0.01769010
     atom  362 type  4   force =     0.01956434   -0.05144450   -0.04657859
     atom  363 type  5   force =     0.00876925    0.05106292    0.03476599
     atom  364 type  5   force =    -0.01912538   -0.00354781    0.00312861
     atom  365 type  4   force =     0.02160585    0.06492455   -0.03232530
     atom  366 type  5   force =    -0.03165418   -0.04792743    0.02930623
     atom  367 type  5   force =     0.02250866   -0.01345194   -0.00411736
     atom  368 type  4   force =    -0.01910080    0.01363940   -0.02123193
     atom  369 type  5   force =    -0.00227795    0.01047205    0.01079792
     atom  370 type  5   force =     0.00850149   -0.02905891   -0.01004449
     atom  371 type  4   force =     0.00942034    0.01273630   -0.03384893
     atom  372 type  5   force =     0.01891557   -0.01320859   -0.00411710
     atom  373 type  5   force =    -0.00496150    0.01854318    0.02924579
     atom  374 type  4   force =     0.05600060   -0.02125292    0.02737875
     atom  375 type  5   force =     0.00618908   -0.03510877   -0.08568526
     atom  376 type  5   force =    -0.06581159    0.05510819    0.04874097
     atom  377 type  4   force =    -0.01011864   -0.00665629    0.00522463
     atom  378 type  5   force =     0.00791654   -0.00702327    0.01400047
     atom  379 type  5   force =    -0.01157958    0.01103286   -0.00883811
     atom  380 type  4   force =    -0.02778800    0.04117278    0.03968918
     atom  381 type  5   force =    -0.00652947   -0.03668507   -0.00409332
     atom  382 type  5   force =     0.01838898   -0.00064350   -0.02085629
     atom  383 type  4   force =    -0.01793953   -0.00442028    0.04245686
     atom  384 type  5   force =     0.02282700   -0.01484195   -0.04836568
     atom  385 type  5   force =    -0.00259244    0.02401339    0.01627946
     atom  386 type  4   force =     0.00176791    0.06026926   -0.03619018
     atom  387 type  5   force =     0.02831146   -0.03168581    0.00971038
     atom  388 type  5   force =    -0.02480422   -0.02723766    0.03169609
     atom  389 type  4   force =     0.00574313   -0.01569163   -0.05074704
     atom  390 type  5   force =    -0.01038287    0.02023610    0.00916201
     atom  391 type  5   force =     0.00948889   -0.02944548    0.02580928
     atom  392 type  4   force =    -0.00004624   -0.02053905   -0.00285235
     atom  393 type  5   force =    -0.00499617    0.01984267   -0.00190383
     atom  394 type  5   force =     0.00452303    0.01045961   -0.00502020
     atom  395 type  4   force =     0.00492078    0.01834883   -0.05244490
     atom  396 type  5   force =     0.01713570   -0.01094530    0.03938696
     atom  397 type  5   force =    -0.02059906   -0.01536916   -0.00212879
     atom  398 type  4   force =     0.02453262    0.00459592    0.00519419
     atom  399 type  5   force =    -0.03841415   -0.01404321    0.00201875
     atom  400 type  5   force =     0.00075830    0.02123859   -0.01208468
     atom  401 type  4   force =    -0.02036388    0.01472750    0.04654506
     atom  402 type  5   force =     0.03591322   -0.00902021   -0.03360649
     atom  403 type  5   force =    -0.00636647   -0.00030459   -0.02093345
     atom  404 type  4   force =     0.00249489    0.00840425   -0.07086929
     atom  405 type  5   force =    -0.01822836   -0.02904262    0.03752538
     atom  406 type  5   force =     0.01038836    0.03697017    0.03502887
     atom  407 type  4   force =    -0.01272342   -0.01645404   -0.03211016
     atom  408 type  5   force =     0.01822831    0.00040568   -0.02187746
     atom  409 type  5   force =     0.00951575    0.01533852    0.03868488
     atom  410 type  4   force =    -0.00224931    0.00127841    0.00441997
     atom  411 type  5   force =     0.01298806   -0.00330402    0.00548676
     atom  412 type  5   force =    -0.01259116    0.00683646   -0.00886178
     atom  413 type  4   force =     0.03761353    0.02984519   -0.00547729
     atom  414 type  5   force =    -0.03334912   -0.01720200   -0.00630276
     atom  415 type  5   force =    -0.01662165    0.01797492    0.00241050
     atom  416 type  4   force =    -0.00625085   -0.01892988    0.00019829
     atom  417 type  5   force =    -0.00623282   -0.00651282    0.01032047
     atom  418 type  5   force =     0.01878289    0.02274996   -0.00563170
     atom  419 type  4   force =    -0.02863758   -0.04415297    0.02502775
     atom  420 type  5   force =     0.03419588    0.01760407   -0.00504969
     atom  421 type  5   force =    -0.01654097    0.01595601   -0.01552632
     atom  422 type  4   force =     0.00404858   -0.04639871   -0.00477349
     atom  423 type  5   force =    -0.00354732    0.01822002    0.03167052
     atom  424 type  5   force =     0.00869381    0.03469970   -0.02166998
     atom  425 type  4   force =    -0.05229757   -0.02593227    0.02829930
     atom  426 type  5   force =    -0.00269024    0.03588920   -0.04070079
     atom  427 type  5   force =     0.05750204   -0.00934407    0.02232610
     atom  428 type  4   force =    -0.04779306   -0.06389028    0.02781992
     atom  429 type  5   force =     0.05785038    0.04286010   -0.02247647
     atom  430 type  5   force =     0.01222379    0.02066652    0.01294223
     atom  431 type  4   force =    -0.02155452    0.01151290   -0.05214418
     atom  432 type  5   force =     0.00668373   -0.02948052    0.00191144
     atom  433 type  5   force =     0.01825452    0.00955661    0.05858928
     atom  434 type  4   force =     0.01399069    0.04963924    0.07468015
     atom  435 type  5   force =    -0.02319970   -0.03125872   -0.07011338
     atom  436 type  5   force =    -0.00467330   -0.01257703   -0.00707597
     atom  437 type  4   force =    -0.08682830   -0.02034929    0.03040498
     atom  438 type  5   force =     0.04762194    0.04563468   -0.02393891
     atom  439 type  5   force =     0.03649253   -0.02788081   -0.01677014
     atom  440 type  4   force =     0.00783656   -0.01495361    0.02519575
     atom  441 type  5   force =     0.00066786    0.00155799    0.00167707
     atom  442 type  5   force =    -0.00881349    0.02328142   -0.01933698
     atom  443 type  4   force =     0.00285229   -0.02332080    0.00865546
     atom  444 type  5   force =    -0.01077719    0.01281207   -0.01378998
     atom  445 type  5   force =     0.02709777    0.01315149   -0.00790646
     atom  446 type  4   force =     0.05028968   -0.04156105   -0.01647999
     atom  447 type  5   force =     0.00328291    0.00529010   -0.00283278
     atom  448 type  5   force =    -0.03846130    0.02397383    0.00964204
     atom  449 type  4   force =     0.03942045    0.00084353    0.01727487
     atom  450 type  5   force =    -0.00977066   -0.00097560   -0.00031108
     atom  451 type  5   force =    -0.02916871   -0.00303289   -0.01255832
     atom  452 type  4   force =    -0.02114123    0.08612937   -0.02815746
     atom  453 type  5   force =     0.00565950   -0.08583120    0.01665884
     atom  454 type  5   force =    -0.00052134    0.00661097    0.01296355
     atom  455 type  4   force =    -0.03270757   -0.00153990   -0.01164979
     atom  456 type  5   force =    -0.00581824   -0.00359787    0.01945557
     atom  457 type  5   force =     0.03853486    0.00886314    0.00103163
     atom  458 type  4   force =    -0.02226003   -0.03229378    0.03597675
     atom  459 type  5   force =    -0.02228776   -0.00483472   -0.02798929
     atom  460 type  5   force =     0.03324003    0.01573118   -0.00238725
     atom  461 type  4   force =     0.01158181   -0.00215652    0.00164296
     atom  462 type  5   force =     0.00622584   -0.00698804    0.00569291
     atom  463 type  5   force =    -0.00566513    0.00109389   -0.00010836
     atom  464 type  4   force =     0.01221690    0.06095143   -0.01183581
     atom  465 type  5   force =     0.00421670   -0.06122154    0.00307189
     atom  466 type  5   force =    -0.01988094   -0.00076890    0.01746975
     atom  467 type  4   force =     0.01397751   -0.03078962   -0.00090744
     atom  468 type  5   force =     0.01151491    0.02204725   -0.01024567
     atom  469 type  5   force =    -0.00288095    0.01978900    0.01093127
     atom  470 type  4   force =    -0.04475127    0.05781117    0.08217177
     atom  471 type  5   force =     0.03762447   -0.04126087   -0.05983142
     atom  472 type  5   force =    -0.00458376   -0.01263001   -0.01594301
     atom  473 type  4   force =    -0.02786108    0.01312026   -0.03705492
     atom  474 type  5   force =     0.06061961   -0.00565691    0.03149994
     atom  475 type  5   force =    -0.02311017   -0.02211829    0.00284436
     atom  476 type  4   force =    -0.03084316    0.00779460   -0.00636977
     atom  477 type  5   force =     0.00196725   -0.01868578    0.00883006
     atom  478 type  5   force =     0.02438066   -0.00244468    0.00252404
     atom  479 type  4   force =    -0.01576713   -0.02983456   -0.03048671
     atom  480 type  5   force =     0.00393177    0.01776524    0.01235988
     atom  481 type  5   force =    -0.00219409    0.00311420    0.02452619
     atom  482 type  4   force =    -0.00805921   -0.01730423    0.02692821
     atom  483 type  5   force =    -0.00219521   -0.00764805   -0.01571255
     atom  484 type  5   force =     0.00935979    0.01701985   -0.01678184
     atom  485 type  4   force =     0.06927960   -0.05989455    0.00572865
     atom  486 type  5   force =    -0.06694689    0.01563545   -0.01884721
     atom  487 type  5   force =    -0.00368707    0.04695838    0.00756576
     atom  488 type  4   force =    -0.00121070    0.02983669   -0.01076364
     atom  489 type  5   force =    -0.01462586   -0.03140555   -0.02173441
     atom  490 type  5   force =     0.02171158   -0.00633580    0.01703751
     atom  491 type  4   force =     0.00929134    0.09114164    0.06814915
     atom  492 type  5   force =     0.01377027   -0.06555708   -0.05786841
     atom  493 type  5   force =    -0.01326135   -0.01034017   -0.00295385

     Total force =     1.522716     Total SCF correction =     0.000327
     Message from routine punch:
     Nothing written, as per user request (disk_io='none')

     init_run     :     32.87s CPU     33.54s WALL (       1 calls)
     electrons    :    742.37s CPU    753.68s WALL (       1 calls)
     forces       :      8.91s CPU      9.32s WALL (       1 calls)

     Called by init_run:
     wfcinit      :     29.56s CPU     30.05s WALL (       1 calls)
     potinit      :      0.23s CPU      0.34s WALL (       1 calls)
     hinit0       :      2.07s CPU      2.08s WALL (       1 calls)

     Called by electrons:
     c_bands      :    620.54s CPU    629.84s WALL (      12 calls)
     sum_band     :    118.72s CPU    119.82s WALL (      12 calls)
     v_of_rho     :      2.51s CPU      3.30s WALL (      13 calls)
     mix_rho      :      0.51s CPU      0.69s WALL (      12 calls)

     Called by c_bands:
     init_us_2    :      1.49s CPU      1.59s WALL (      25 calls)
     init_us_2:cp :      1.49s CPU      1.59s WALL (      25 calls)
     regterg      :    617.54s CPU    625.64s WALL (      12 calls)

     Called by *egterg:
     rdiaghg      :      6.38s CPU      6.90s WALL (      38 calls)
     h_psi        :    546.82s CPU    552.46s WALL (      39 calls)
     g_psi        :      0.17s CPU      0.17s WALL (      26 calls)

     Called by h_psi:
     h_psi:calbec :     40.38s CPU     41.44s WALL (      39 calls)
     vloc_psi     :    117.93s CPU    118.97s WALL (      39 calls)
     add_vuspsi   :     35.22s CPU     35.75s WALL (      39 calls)
     h_psi_meta   :    352.65s CPU    355.65s WALL (      39 calls)

     General routines
     calbec       :     46.04s CPU     47.23s WALL (      43 calls)
     fft          :      3.18s CPU      3.75s WALL (     129 calls)
     ffts         :      0.17s CPU      0.25s WALL (      24 calls)
     fftw         :    564.08s CPU    568.80s WALL (  150328 calls)
     interpolate  :      0.00s CPU      0.00s WALL (      13 calls)

     Parallel routines

     PWSCF        :  13m 4.34s CPU  13m17.14s WALL


   This run was terminated on:  12:37:54   9Mar2025            

=------------------------------------------------------------------------------=
   JOB DONE.
=------------------------------------------------------------------------------=
